###############################################################################
# Deganello, F.;Liotta, L.F.;Longo, A.;Casaletto, M.P.;Scopelliti, M. (2006)
# Journal of Solid State Chemistry 179, 3406-3419
# Cerium effect on the phase structure, phase stability and redox properties \
# of Ce-doped strontium ferrates
# 
# CIF by ICSD-for-WWW,  Copyright 2003 FIZ-Karlsruhe & A.W.Hewat (hewat@ill.fr)
# NOT TO BE PUBLISHED IN ANY FORM. See http://icsd.ill.fr/icsd/conditions.html
###############################################################################

data_249006-ICSD
_database_code_ICSD                249006
_audit_creation_date               2007-08-01
_chemical_name_systematic
'Distrontium diferrate(III)'
_chemical_formula_structural       
'Sr2 (Fe2 O5)'
_chemical_formula_sum              
'Fe2 O5 Sr2'
_publ_section_title                
'Fe2 O5 Sr2'
loop_
_citation_id
_citation_journal_abbrev
_citation_year
_citation_journal_volume
_citation_page_first
_citation_page_last
_citation_journal_id_ASTM
primary 'Journal of Solid State Chemistry' 2006 179 3406 3419 JSSCBI
loop_
_publ_author_name
Deganello, F.;Liotta, L.F.;Longo, A.;Casaletto, M.P.;Scopelliti, M.
_cell_length_a                     5.6702
_cell_length_b                     15.5899
_cell_length_c                     5.5307
_cell_angle_alpha                  90.0
_cell_angle_beta                   90.0
_cell_angle_gamma                  90.0
_cell_volume                       488.9001
_cell_formula_units_Z              4.000
_symmetry_space_group_name_H-M     'I c m m'
_symmetry_Int_Tables_number        74
_refine_ls_R_factor_all            0.083
loop_
_symmetry_equiv_pos_site_id
_symmetry_equiv_pos_as_xyz
   1   '-x, y+1/2, -z'
   2   'x, -y+1/2, -z'
   3   'x, y, -z'
   4   '-x, -y, -z'
   5   'x, -y+1/2, z'
   6   '-x, y+1/2, z'
   7   '-x, -y, z'
   8   'x, y, z'
   9   '-x+1/2, y, -z+1/2'
  10   'x+1/2, -y, -z+1/2'
  11   'x+1/2, y+1/2, -z+1/2'
  12   '-x+1/2, -y+1/2, -z+1/2'
  13   'x+1/2, -y, z+1/2'
  14   '-x+1/2, y, z+1/2'
  15   '-x+1/2, -y+1/2, z+1/2'
  16   'x+1/2, y+1/2, z+1/2'
loop_
_atom_type_symbol
_atom_type_oxidation_number
Sr2+     2.
Fe3+     3.
O2-     -2.
loop_
_atom_site_label
_atom_site_type_symbol
_atom_site_symmetry_multiplicity
_atom_site_Wyckoff_symbol
_atom_site_fract_x
_atom_site_fract_y
_atom_site_fract_z
_atom_site_B_iso_or_equiv
_atom_site_occupancy
Sr1 Sr2+ 8 h 0.0142 0.1089 0.5 0.0156(13) 1.0
Fe1 Fe3+ 4 a 0.0 0.0 0.0 0.0176(25) 1.0
Fe2 Fe3+ 8 i 0.9294 0.25 0.9629 0.016(5) 0.5
O1 O2- 8 g 0.25 0.9872 0.25 0.001(5) 1.0
O2 O2- 8 h 0.0518 0.1397 0.0 0.042(7) 1.0
O3 O2- 8 i 0.8386 0.25 0.647 0.026(15) 0.5
#End of data_249006-ICSD

