###############################################################################
# Schaefer, H.;von Schnering, H.G.;Tillack, J.V.;Kuhnen, F.;Woehrle, H.;\
# Baumann, H. (1967)
# Zeitschrift fuer Anorg. und Allgemeine Chemie 353, 281-310
# Neue Untersuchungen ueber die Chloride des Molybdaens
# 
# CIF by ICSD-for-WWW,  Copyright 2003 FIZ-Karlsruhe & A.W.Hewat (hewat@ill.fr)
# NOT TO BE PUBLISHED IN ANY FORM. See http://icsd.ill.fr/icsd/conditions.html
###############################################################################

data_26108-ICSD
_database_code_ICSD                26108
_audit_creation_date               1986-10-10
_chemical_name_systematic
'Molybdenum(III) chloride - alpha'
_chemical_formula_structural       
'Mo Cl3'
_chemical_formula_sum              
'Cl3 Mo1'
_publ_section_title                
'Cl3 Mo1'
loop_
_citation_id
_citation_journal_abbrev
_citation_year
_citation_journal_volume
_citation_page_first
_citation_page_last
_citation_journal_id_ASTM
primary 'Zeitschrift fuer Anorg. und Allgemeine C' 1967 353 281 310 ZAACAB
loop_
_publ_author_name
Schaefer, H.;von Schnering, H.G.;Tillack, J.V.;Kuhnen, F.;Woehrle, H.;\
Baumann, H.
_cell_length_a                     6.092
_cell_length_b                     9.745
_cell_length_c                     7.275
_cell_angle_alpha                  90.
_cell_angle_beta                   124.6
_cell_angle_gamma                  90.
_cell_volume                       355.5101
_cell_formula_units_Z              4.000
_symmetry_space_group_name_H-M     'C 1 2/m 1'
_symmetry_Int_Tables_number        12
_refine_ls_R_factor_all            0.0749
loop_
_symmetry_equiv_pos_site_id
_symmetry_equiv_pos_as_xyz
   1   '-x, y, -z'
   2   '-x, -y, -z'
   3   'x, -y, z'
   4   'x, y, z'
   5   '-x+1/2, y+1/2, -z'
   6   '-x+1/2, -y+1/2, -z'
   7   'x+1/2, -y+1/2, z'
   8   'x+1/2, y+1/2, z'
loop_
_atom_type_symbol
_atom_type_oxidation_number
Mo3+     3.
Cl1-     -1.
loop_
_atom_site_label
_atom_site_type_symbol
_atom_site_symmetry_multiplicity
_atom_site_Wyckoff_symbol
_atom_site_fract_x
_atom_site_fract_y
_atom_site_fract_z
_atom_site_B_iso_or_equiv
_atom_site_occupancy
Mo1 Mo3+ 4 g 0 0.1417 0 1.15 1.
Cl1 Cl1- 8 j 0.502 0.17 0.223 1.14 1.
Cl2 Cl1- 4 i 0.008 0 0.274 1.14 1.
#End of data_26108-ICSD

###############################################################################
# von Schnering, H.G.;May, W.;Peters, K. (1993)
# Zeitschrift fuer Krist. (149,1979-) 208, 368-369
# Crystal structure of dodecachloro octahedrohexamolybdenium
# 
# CIF by ICSD-for-WWW,  Copyright 2003 FIZ-Karlsruhe & A.W.Hewat (hewat@ill.fr)
# NOT TO BE PUBLISHED IN ANY FORM. See http://icsd.ill.fr/icsd/conditions.html
###############################################################################

data_300273-ICSD
_database_code_ICSD                300273
_audit_creation_date               1993-01-06
_chemical_name_systematic
'Dodecachlorooctahedro-molybdenum'
_chemical_formula_structural       
'Mo6 Cl12'
_chemical_formula_sum              
'Cl12 Mo6'
_publ_section_title                
'Cl12 Mo6'
loop_
_citation_id
_citation_journal_abbrev
_citation_year
_citation_journal_volume
_citation_page_first
_citation_page_last
_citation_journal_id_ASTM
primary 'Zeitschrift fuer Krist. (149,1979-)' 1993 208 368 369 ZEKRDZ
loop_
_publ_author_name
von Schnering, H.G.;May, W.;Peters, K.
_cell_length_a                     11.253(3)
_cell_length_b                     11.277(3)
_cell_length_c                     14.068(3)
_cell_angle_alpha                  90.
_cell_angle_beta                   90.
_cell_angle_gamma                  90.
_cell_volume                       1785.2304
_cell_formula_units_Z              4.000
_symmetry_space_group_name_H-M     'B b c m'
_symmetry_Int_Tables_number        64
_refine_ls_R_factor_all            0.0226
loop_
_symmetry_equiv_pos_site_id
_symmetry_equiv_pos_as_xyz
   1   '-x+1/2, y+1/2, -z'
   2   'x+1/2, -y+1/2, -z'
   3   'x, y, -z'
   4   '-x, -y, -z'
   5   'x+1/2, -y+1/2, z'
   6   '-x+1/2, y+1/2, z'
   7   '-x, -y, z'
   8   'x, y, z'
   9   '-x, y+1/2, -z+1/2'
  10   'x, -y+1/2, -z+1/2'
  11   'x+1/2, y, -z+1/2'
  12   '-x+1/2, -y, -z+1/2'
  13   'x, -y+1/2, z+1/2'
  14   '-x, y+1/2, z+1/2'
  15   '-x+1/2, -y, z+1/2'
  16   'x+1/2, y, z+1/2'
loop_
_atom_type_symbol
_atom_type_oxidation_number
Mo2+     2.
Cl1-     -1.
loop_
_atom_site_label
_atom_site_type_symbol
_atom_site_symmetry_multiplicity
_atom_site_Wyckoff_symbol
_atom_site_fract_x
_atom_site_fract_y
_atom_site_fract_z
_atom_site_B_iso_or_equiv
_atom_site_occupancy
Mo1 Mo2+ 8 d 0 0 0.13131(3) 0. 1.
Mo2 Mo2+ 8 f 0.15000(4) 0.06507(4) 0 0. 1.
Mo3 Mo2+ 8 f 0.93475(4) 0.14969(4) 0 0. 1.
Cl1 Cl1- 16 g 0.08084(8) 0.20378(8) 0.12374(7) 0. 1.
Cl2 Cl1- 16 g 0.20422(8) 0.91960(8) 0.12390(8) 0. 1.
Cl3 Cl1- 8 d 0 0 0.30047(11) 0. 1.
Cl4 Cl1- 8 f 0.35722(12) 0.14318(12) 0 0. 1.
loop_
_atom_site_aniso_label
_atom_site_aniso_type_symbol
_atom_site_aniso_U_11
_atom_site_aniso_U_22
_atom_site_aniso_U_33
_atom_site_aniso_U_12
_atom_site_aniso_U_13
_atom_site_aniso_U_23
Mo1 Mo2+ 0.01907(24) 0.01863(24) 0.02311(26) -0.00100(17) 0 0
Mo2 Mo2+ 0.01575(24) 0.01630(24) 0.02598(27) -0.00093(16) 0 0
Mo3 Mo2+ 0.01694(24) 0.01549(24) 0.02659(28) 0.00086(16) 0 0
Cl1 Cl1- 0.02494(46) 0.02209(42) 0.03203(53) -0.00251(38) -0.00130(37) -0.00511(38)
Cl2 Cl1- 0.02198(42) 0.02527(46) 0.03429(52) 0.00078(39) -0.00458(38) 0.00270(38)
Cl3 Cl1- 0.04584(88) 0.04490(87) 0.02452(72) -0.00702(71) 0 0
Cl4 Cl1- 0.02015(63) 0.01955(62) 0.04924(93) -0.00393(49) 0 0
#End of data_300273-ICSD

###############################################################################
# Beck, J.;Wolf, F. (1997)
# Acta Crystallographica B (39,1983-) 53, 895-903
# Three new polymorphic forms of molybdenum pentachloride
# 
# CIF by ICSD-for-WWW,  Copyright 2003 FIZ-Karlsruhe & A.W.Hewat (hewat@ill.fr)
# NOT TO BE PUBLISHED IN ANY FORM. See http://icsd.ill.fr/icsd/conditions.html
###############################################################################

data_84622-ICSD
_database_code_ICSD                84622
_audit_creation_date               1999-01-19
_chemical_name_systematic
'Molybdenum(V) chloride - delta, HT'
_chemical_formula_structural       
'Mo Cl5'
_chemical_formula_sum              
'Cl5 Mo1'
_publ_section_title                
'Cl5 Mo1'
loop_
_citation_id
_citation_journal_abbrev
_citation_year
_citation_journal_volume
_citation_page_first
_citation_page_last
_citation_journal_id_ASTM
primary 'Acta Crystallographica B (39,1983-)' 1997 53 895 903 ASBSDK
loop_
_publ_author_name
Beck, J.;Wolf, F.
_cell_length_a                     9.4682(7)
_cell_length_b                     11.7496(9)
_cell_length_c                     12.1619(11)
_cell_angle_alpha                  90.
_cell_angle_beta                   108.879(5)
_cell_angle_gamma                  90.
_cell_volume                       1280.2007
_cell_formula_units_Z              8.000
_symmetry_space_group_name_H-M     'P 1 21/c 1'
_symmetry_Int_Tables_number        14
_refine_ls_R_factor_all            0.0361
loop_
_symmetry_equiv_pos_site_id
_symmetry_equiv_pos_as_xyz
   1   'x, -y+1/2, z+1/2'
   2   '-x, -y, -z'
   3   '-x, y+1/2, -z+1/2'
   4   'x, y, z'
loop_
_atom_type_symbol
_atom_type_oxidation_number
Mo5+     5.
Cl1-     -1.
loop_
_atom_site_label
_atom_site_type_symbol
_atom_site_symmetry_multiplicity
_atom_site_Wyckoff_symbol
_atom_site_fract_x
_atom_site_fract_y
_atom_site_fract_z
_atom_site_B_iso_or_equiv
_atom_site_occupancy
Mo1 Mo5+ 4 e 0.87614(4) 0.12898(3) 0.18541(3) 0.02719(12) 1.
Mo2 Mo5+ 4 e 0.30982(4) 0.12463(3) 0.29423(3) 0.02611(12) 1.
Cl1 Cl1- 4 e 0.09130(15) 0.01230(11) 0.16099(12) 0.0365(3) 1.
Cl2 Cl1- 4 e -.0965(2) 0.24038(14) 0.04016(14) 0.0481(3) 1.
Cl3 Cl1- 4 e 0.8999(2) 0.01724(14) 0.34388(13) 0.0465(3) 1.
Cl4 Cl1- 4 e 0.7073(2) 0.01144(14) 0.06188(15) 0.0528(4) 1.
Cl5 Cl1- 4 e 0.7110(2) 0.24767(14) 0.2246(2) 0.0512(4) 1.
Cl6 Cl1- 4 e 0.0947(2) 0.24173(11) 0.31871(12) 0.0369(3) 1.
Cl7 Cl1- 4 e 0.2883(2) 0.23797(14) 0.13689(14) 0.0489(4) 1.
Cl8 Cl1- 4 e 0.2833(2) 0.01448(14) 0.44113(13) 0.0481(4) 1.
Cl9 Cl1- 4 e 0.4740(2) 0.00253(14) 0.2547(2) 0.0510(4) 1.
Cl10 Cl1- 4 e 0.4805(2) 0.2420(2) 0.4178(2) 0.0552(4) 1.
#End of data_84622-ICSD

###############################################################################
# Beck, J.;Wolf, F. (1997)
# Acta Crystallographica B (39,1983-) 53, 895-903
# Three new polymorphic forms of molybdenum pentachloride
# 
# CIF by ICSD-for-WWW,  Copyright 2003 FIZ-Karlsruhe & A.W.Hewat (hewat@ill.fr)
# NOT TO BE PUBLISHED IN ANY FORM. See http://icsd.ill.fr/icsd/conditions.html
###############################################################################

data_84621-ICSD
_database_code_ICSD                84621
_audit_creation_date               1999-01-19
_chemical_name_systematic
'Molybdenum(V) chloride - gamma'
_chemical_formula_structural       
'Mo Cl5'
_chemical_formula_sum              
'Cl5 Mo1'
_publ_section_title                
'Cl5 Mo1'
loop_
_citation_id
_citation_journal_abbrev
_citation_year
_citation_journal_volume
_citation_page_first
_citation_page_last
_citation_journal_id_ASTM
primary 'Acta Crystallographica B (39,1983-)' 1997 53 895 903 ASBSDK
loop_
_publ_author_name
Beck, J.;Wolf, F.
_cell_length_a                     11.700(9)
_cell_length_b                     17.874(10)
_cell_length_c                     6.085(3)
_cell_angle_alpha                  90.
_cell_angle_beta                   90.
_cell_angle_gamma                  90.
_cell_volume                       1272.531
_cell_formula_units_Z              8.000
_symmetry_space_group_name_H-M     'P n m a'
_symmetry_Int_Tables_number        62
_refine_ls_R_factor_all            0.0406
loop_
_symmetry_equiv_pos_site_id
_symmetry_equiv_pos_as_xyz
   1   'x+1/2, y, -z+1/2'
   2   'x, -y+1/2, z'
   3   '-x+1/2, y+1/2, z+1/2'
   4   '-x, -y, -z'
   5   '-x+1/2, -y, z+1/2'
   6   '-x, y+1/2, -z'
   7   'x+1/2, -y+1/2, -z+1/2'
   8   'x, y, z'
loop_
_atom_type_symbol
_atom_type_oxidation_number
Mo5+     5.
Cl1-     -1.
loop_
_atom_site_label
_atom_site_type_symbol
_atom_site_symmetry_multiplicity
_atom_site_Wyckoff_symbol
_atom_site_fract_x
_atom_site_fract_y
_atom_site_fract_z
_atom_site_B_iso_or_equiv
_atom_site_occupancy
Mo1 Mo5+ 8 d 0.12469(4) 0.35843(2) 0.09031(7) 0.0281(2) 1.
Cl1 Cl1- 4 c 0.2348(2) 0.25 -.0801(3) 0.0391(4) 1.
Cl2 Cl1- 8 d 0.24509(15) 0.34571(10) 0.3813(3) 0.0481(4) 1.
Cl3 Cl1- 8 d 0.00228(14) 0.34617(9) 0.8018(3) 0.0487(4) 1.
Cl4 Cl1- 8 d 0.2395(2) 0.44145(10) -.0857(3) 0.0557(5) 1.
Cl5 Cl1- 8 d 0.0123(2) 0.44280(9) 0.2660(3) 0.0554(4) 1.
Cl6 Cl1- 4 c 0.0148(2) 0.25 0.2601(3) 0.0374(4) 1.
#End of data_84621-ICSD

###############################################################################
# Beck, J.;Wolf, F. (1997)
# Acta Crystallographica B (39,1983-) 53, 895-903
# Three new polymorphic forms of molybdenum pentachloride
# 
# CIF by ICSD-for-WWW,  Copyright 2003 FIZ-Karlsruhe & A.W.Hewat (hewat@ill.fr)
# NOT TO BE PUBLISHED IN ANY FORM. See http://icsd.ill.fr/icsd/conditions.html
###############################################################################

data_84620-ICSD
_database_code_ICSD                84620
_audit_creation_date               1999-01-19
_chemical_name_systematic
'Molybdenum(V) chloride - beta, LT'
_chemical_formula_structural       
'Mo Cl5'
_chemical_formula_sum              
'Cl5 Mo1'
_publ_section_title                
'Cl5 Mo1'
loop_
_citation_id
_citation_journal_abbrev
_citation_year
_citation_journal_volume
_citation_page_first
_citation_page_last
_citation_journal_id_ASTM
primary 'Acta Crystallographica B (39,1983-)' 1997 53 895 903 ASBSDK
loop_
_publ_author_name
Beck, J.;Wolf, F.
_cell_length_a                     6.716(6)
_cell_length_b                     9.048(9)
_cell_length_c                     6.074(4)
_cell_angle_alpha                  89.19(4)
_cell_angle_beta                   118.17(5)
_cell_angle_gamma                  108.85(4)
_cell_volume                       303.6602
_cell_formula_units_Z              2.000
_symmetry_space_group_name_H-M     'P -1'
_symmetry_Int_Tables_number        2
_refine_ls_R_factor_all            0.0226
loop_
_symmetry_equiv_pos_site_id
_symmetry_equiv_pos_as_xyz
   1   '-x, -y, -z'
   2   'x, y, z'
loop_
_atom_type_symbol
_atom_type_oxidation_number
Mo5+     5.
Cl1-     -1.
loop_
_atom_site_label
_atom_site_type_symbol
_atom_site_symmetry_multiplicity
_atom_site_Wyckoff_symbol
_atom_site_fract_x
_atom_site_fract_y
_atom_site_fract_z
_atom_site_B_iso_or_equiv
_atom_site_occupancy
Mo1 Mo5+ 2 i 0.74329(7) 0.71659(5) 0.61106(7) 0.01982(11) 1.
Cl1 Cl1- 2 i 0.3066(2) 0.54412(13) 0.5570(2) 0.0231(2) 1.
Cl2 Cl1- 2 i 0.8656(2) 0.64142(15) 0.9925(2) 0.0309(3) 1.
Cl3 Cl1- 2 i 0.4981(2) 0.73710(14) 0.2012(2) 0.0313(3) 1.
Cl4 Cl1- 2 i 0.0757(2) 0.83926(14) 0.6408(2) 0.0344(3) 1.
Cl5 Cl1- 2 i 0.6888(2) 0.93418(14) 0.7550(2) 0.0343(3) 1.
#End of data_84620-ICSD

###############################################################################
# Hillebrecht, H.;Schmidt, P.J.;Rotter, H.W.;Thiele, G.;Zoennchen, P.;\
# Bengel, H.;Cantow, H.J.;Magonov, S.N.;Whangbo Myunghwan (1997)
# Journal of Alloys Compd. 246, 70-79
# Structural and scanning microscopy studies of layered compounds M Cl3 (M = \
# Mo, Ru, Cr) and M O Cl2 (M = V, Nb, Mo, Ru, Os)
# 
# CIF by ICSD-for-WWW,  Copyright 2003 FIZ-Karlsruhe & A.W.Hewat (hewat@ill.fr)
# NOT TO BE PUBLISHED IN ANY FORM. See http://icsd.ill.fr/icsd/conditions.html
###############################################################################

data_83879-ICSD
_database_code_ICSD                83879
_audit_creation_date               1999-01-19
_chemical_name_systematic
'Molybdenum(III) chloride - beta'
_chemical_formula_structural       
'Mo Cl3'
_chemical_formula_sum              
'Cl3 Mo1'
_publ_section_title                
'Cl3 Mo1'
loop_
_citation_id
_citation_journal_abbrev
_citation_year
_citation_journal_volume
_citation_page_first
_citation_page_last
_citation_journal_id_ASTM
primary 'Journal of Alloys Compd.' 1997 246 70 79 JALCEU
loop_
_publ_author_name
Hillebrecht, H.;Schmidt, P.J.;Rotter, H.W.;Thiele, G.;Zoennchen, P.;\
Bengel, H.;Cantow, H.J.;Magonov, S.N.;Whangbo Myunghwan
_cell_length_a                     6.094(1)
_cell_length_b                     9.801(2)
_cell_length_c                     12.026(2)
_cell_angle_alpha                  90.
_cell_angle_beta                   92.79(3)
_cell_angle_gamma                  90.
_cell_volume                       717.4308
_cell_formula_units_Z              8.000
_symmetry_space_group_name_H-M     'C 1 2/m 1'
_symmetry_Int_Tables_number        12
_refine_ls_R_factor_all            0.1702
loop_
_symmetry_equiv_pos_site_id
_symmetry_equiv_pos_as_xyz
   1   '-x, y, -z'
   2   '-x, -y, -z'
   3   'x, -y, z'
   4   'x, y, z'
   5   '-x+1/2, y+1/2, -z'
   6   '-x+1/2, -y+1/2, -z'
   7   'x+1/2, -y+1/2, z'
   8   'x+1/2, y+1/2, z'
loop_
_atom_type_symbol
_atom_type_oxidation_number
Mo3+     3.
Cl1-     -1.
loop_
_atom_site_label
_atom_site_type_symbol
_atom_site_symmetry_multiplicity
_atom_site_Wyckoff_symbol
_atom_site_fract_x
_atom_site_fract_y
_atom_site_fract_z
_atom_site_B_iso_or_equiv
_atom_site_occupancy
Mo1 Mo3+ 4 g 0 0.1420(4) 0 0.005(2) 1.
Mo2 Mo3+ 4 h 0 0.1812(14) 0.5 0.060(5) 0.5
Mo3 Mo3+ 4 h 0 0.4678(10) 0.5 0.036(5) 0.5
Cl1 Cl1- 4 i 0.1582(20) 0 0.8669(10) 0.012(3) 1.
Cl2 Cl1- 8 j 0.3401(14) 0.1688(7) 0.1113(7) 0.010(3) 1.
Cl3 Cl1- 4 i 0.8669(30) 0 0.6136(15) 0.043(5) 1.
Cl4 Cl1- 8 j 0.3375(24) 0.1654(12) 0.6234(12) 0.051(4) 1.
#End of data_83879-ICSD

###############################################################################
# Hillebrecht, H.;Schmidt, P.J.;Rotter, H.W.;Thiele, G.;Zoennchen, P.;\
# Bengel, H.;Cantow, H.J.;Magonov, S.N.;Whangbo Myunghwan (1997)
# Journal of Alloys Compd. 246, 70-79
# Structural and scanning microscopy studies of layered compounds M Cl3 (M = \
# Mo, Ru, Cr) and M O Cl2 (M = V, Nb, Mo, Ru, Os)
# 
# CIF by ICSD-for-WWW,  Copyright 2003 FIZ-Karlsruhe & A.W.Hewat (hewat@ill.fr)
# NOT TO BE PUBLISHED IN ANY FORM. See http://icsd.ill.fr/icsd/conditions.html
###############################################################################

data_83878-ICSD
_database_code_ICSD                83878
_audit_creation_date               1999-01-19
_chemical_name_systematic
'Molybdenum(III) chloride - alpha'
_chemical_formula_structural       
'Mo Cl3'
_chemical_formula_sum              
'Cl3 Mo1'
_publ_section_title                
'Cl3 Mo1'
loop_
_citation_id
_citation_journal_abbrev
_citation_year
_citation_journal_volume
_citation_page_first
_citation_page_last
_citation_journal_id_ASTM
primary 'Journal of Alloys Compd.' 1997 246 70 79 JALCEU
loop_
_publ_author_name
Hillebrecht, H.;Schmidt, P.J.;Rotter, H.W.;Thiele, G.;Zoennchen, P.;\
Bengel, H.;Cantow, H.J.;Magonov, S.N.;Whangbo Myunghwan
_cell_length_a                     6.098(1)
_cell_length_b                     9.757(2)
_cell_length_c                     6.301(1)
_cell_angle_alpha                  90.
_cell_angle_beta                   108.06(2)
_cell_angle_gamma                  90.
_cell_volume                       356.4309
_cell_formula_units_Z              4.000
_symmetry_space_group_name_H-M     'C 1 2/m 1'
_symmetry_Int_Tables_number        12
_refine_ls_R_factor_all            0.0541
loop_
_symmetry_equiv_pos_site_id
_symmetry_equiv_pos_as_xyz
   1   '-x, y, -z'
   2   '-x, -y, -z'
   3   'x, -y, z'
   4   'x, y, z'
   5   '-x+1/2, y+1/2, -z'
   6   '-x+1/2, -y+1/2, -z'
   7   'x+1/2, -y+1/2, z'
   8   'x+1/2, y+1/2, z'
loop_
_atom_type_symbol
_atom_type_oxidation_number
Mo3+     3.
Cl1-     -1.
loop_
_atom_site_label
_atom_site_type_symbol
_atom_site_symmetry_multiplicity
_atom_site_Wyckoff_symbol
_atom_site_fract_x
_atom_site_fract_y
_atom_site_fract_z
_atom_site_B_iso_or_equiv
_atom_site_occupancy
Mo1 Mo3+ 4 g 0 0.1414(1) 0 0.0159(5) 1.
Cl1 Cl1- 8 j 0.7410(4) 0.1693(2) 0.2236(4) 0.0200(6) 1.
Cl2 Cl1- 4 i 0.2522(5) 0 0.2703(6) 0.0213(8) 1.
#End of data_83878-ICSD

###############################################################################
# Schaefer, H.;von Schnering, H.G.;Tillack, J.V.;Kuhnen, F.;Woehrle, H.;\
# Baumann, H. (1967)
# Zeitschrift fuer Anorg. und Allgemeine Chemie 353, 281-310
# Neue Untersuchungen ueber die Chloride das Molybdaens
# 
# CIF by ICSD-for-WWW,  Copyright 2003 FIZ-Karlsruhe & A.W.Hewat (hewat@ill.fr)
# NOT TO BE PUBLISHED IN ANY FORM. See http://icsd.ill.fr/icsd/conditions.html
###############################################################################

data_41242-ICSD
_database_code_ICSD                41242
_audit_creation_date               1999-11-30
_chemical_name_systematic
'Molybdenum(IV) chloride'
_chemical_formula_structural       
'Mo Cl4'
_chemical_formula_sum              
'Cl4 Mo1'
_publ_section_title                
'Cl4 Mo1'
loop_
_citation_id
_citation_journal_abbrev
_citation_year
_citation_journal_volume
_citation_page_first
_citation_page_last
_citation_journal_id_ASTM
primary 'Zeitschrift fuer Anorg. und Allgemeine C' 1967 353 281 310 ZAACAB
loop_
_publ_author_name
Schaefer, H.;von Schnering, H.G.;Tillack, J.V.;Kuhnen, F.;Woehrle, H.;\
Baumann, H.
_cell_length_a                     6.058
_cell_length_b                     6.058
_cell_length_c                     11.674
_cell_angle_alpha                  90.
_cell_angle_beta                   90.
_cell_angle_gamma                  120.
_cell_volume                       371.0306
_cell_formula_units_Z              3.000
_symmetry_space_group_name_H-M     'P -3 1 c'
_symmetry_Int_Tables_number        163
_refine_ls_R_factor_all            0.0785
loop_
_symmetry_equiv_pos_site_id
_symmetry_equiv_pos_as_xyz
   1   '-x+y, y, -z+1/2'
   2   'x, x-y, -z+1/2'
   3   '-y, -x, -z+1/2'
   4   'x-y, x, -z'
   5   'y, -x+y, -z'
   6   '-x, -y, -z'
   7   'x-y, -y, z+1/2'
   8   '-x, -x+y, z+1/2'
   9   'y, x, z+1/2'
  10   '-x+y, -x, z'
  11   '-y, x-y, z'
  12   'x, y, z'
loop_
_atom_type_symbol
_atom_type_oxidation_number
Mo4+     4.
Cl1-     -1.
loop_
_atom_site_label
_atom_site_type_symbol
_atom_site_symmetry_multiplicity
_atom_site_Wyckoff_symbol
_atom_site_fract_x
_atom_site_fract_y
_atom_site_fract_z
_atom_site_B_iso_or_equiv
_atom_site_occupancy
Mo1 Mo4+ 2 a 0 0 0.25 1.5 0.75
Mo2 Mo4+ 2 d 0.3333 0.6667 0.75 1.3 0.75
Cl1 Cl1- 12 i -.327 0.006 0.131 1.5 1.
#End of data_41242-ICSD

###############################################################################
# Mueller, U. (1981)
# Angewandte Chemie (German Edition) 93, 697-698
# Hexameres Molybdaentetrachlorid
# 
# CIF by ICSD-for-WWW,  Copyright 2003 FIZ-Karlsruhe & A.W.Hewat (hewat@ill.fr)
# NOT TO BE PUBLISHED IN ANY FORM. See http://icsd.ill.fr/icsd/conditions.html
###############################################################################

data_35139-ICSD
_database_code_ICSD                35139
_audit_creation_date               1981-12-31
_chemical_name_systematic
'Molybdenum(IV) chloride - beta, HT'
_chemical_formula_structural       
'Mo Cl4'
_chemical_formula_sum              
'Cl4 Mo1'
_publ_section_title                
'Cl4 Mo1'
loop_
_citation_id
_citation_journal_abbrev
_citation_year
_citation_journal_volume
_citation_page_first
_citation_page_last
_citation_journal_id_ASTM
primary 'Angewandte Chemie (German Edition)' 1981 93 697 698 ANCEAD
loop_
_publ_author_name
Mueller, U.
_cell_length_a                     12.09
_cell_length_b                     12.09
_cell_length_c                     5.86
_cell_angle_alpha                  90.
_cell_angle_beta                   90.
_cell_angle_gamma                  120.
_cell_volume                       741.7902
_cell_formula_units_Z              6.000
_symmetry_space_group_name_H-M     'P -3 1 m'
_symmetry_Int_Tables_number        162
_refine_ls_R_factor_all            0.0532
loop_
_symmetry_equiv_pos_site_id
_symmetry_equiv_pos_as_xyz
   1   '-x+y, y, -z'
   2   'x, x-y, -z'
   3   '-y, -x, -z'
   4   'x-y, x, -z'
   5   'y, -x+y, -z'
   6   '-x, -y, -z'
   7   'x-y, -y, z'
   8   '-x, -x+y, z'
   9   'y, x, z'
  10   '-x+y, -x, z'
  11   '-y, x-y, z'
  12   'x, y, z'
loop_
_atom_type_symbol
_atom_type_oxidation_number
Mo4+     4.
Cl1-     -1.
loop_
_atom_site_label
_atom_site_type_symbol
_atom_site_symmetry_multiplicity
_atom_site_Wyckoff_symbol
_atom_site_fract_x
_atom_site_fract_y
_atom_site_fract_z
_atom_site_B_iso_or_equiv
_atom_site_occupancy
Mo1 Mo4+ 6 i 0.3506(3) 0.1753(2) 0 0. 1.
Cl1 Cl1- 6 k 0.1699(11) 0 -.2214(20) 0. 1.
Cl2 Cl1- 6 k 0.3372(9) 0 0.2258(10) 0. 1.
Cl3 Cl1- 12 l 0.4842(10) 0.1700(6) -.2492(12) 0. 1.
loop_
_atom_site_aniso_label
_atom_site_aniso_type_symbol
_atom_site_aniso_U_11
_atom_site_aniso_U_22
_atom_site_aniso_U_33
_atom_site_aniso_U_12
_atom_site_aniso_U_13
_atom_site_aniso_U_23
Mo1 Mo4+ 0.015(2) 0.018(1) 0.023(1) 0.008(8) 0 0.001(1)
Cl1 Cl1- 0.020(4) 0.027(6) 0.033(5) 0.013(3) 0.001(4) 0
Cl2 Cl1- 0.021(3) 0.025(6) 0.029(4) 0.012(3) -0.009(4) 0
Cl3 Cl1- 0.024(3) 0.041(3) 0.036(3) 0.016(3) 0.003(3) 0.002(2)
#End of data_35139-ICSD

###############################################################################
# Schaefer, H.;von Schnering, H.G.;Tillack, J.V.;Kuhnen, F.;Woehrle, H.;\
# Baumann, H. (1967)
# Zeitschrift fuer Anorg. und Allgemeine Chemie 353, 281-310
# Neue Untersuchungen ueber die Chloride des Molybdaens
# 
# CIF by ICSD-for-WWW,  Copyright 2003 FIZ-Karlsruhe & A.W.Hewat (hewat@ill.fr)
# NOT TO BE PUBLISHED IN ANY FORM. See http://icsd.ill.fr/icsd/conditions.html
###############################################################################

data_26110-ICSD
_database_code_ICSD                26110
_audit_creation_date               1980-01-01
_chemical_name_systematic
'Dodecachloro-octahedro-hexamolybdenum'
_chemical_formula_structural       
'Mo6 Cl12'
_chemical_formula_sum              
'Cl12 Mo6'
_publ_section_title                
'Cl12 Mo6'
loop_
_citation_id
_citation_journal_abbrev
_citation_year
_citation_journal_volume
_citation_page_first
_citation_page_last
_citation_journal_id_ASTM
primary 'Zeitschrift fuer Anorg. und Allgemeine C' 1967 353 281 310 ZAACAB
loop_
_publ_author_name
Schaefer, H.;von Schnering, H.G.;Tillack, J.V.;Kuhnen, F.;Woehrle, H.;\
Baumann, H.
_cell_length_a                     11.249
_cell_length_b                     11.28
_cell_length_c                     14.067
_cell_angle_alpha                  90.
_cell_angle_beta                   90.
_cell_angle_gamma                  90.
_cell_volume                       1784.9407
_cell_formula_units_Z              4.000
_symmetry_space_group_name_H-M     'B b c m'
_symmetry_Int_Tables_number        64
_refine_ls_R_factor_all            0.1243
loop_
_symmetry_equiv_pos_site_id
_symmetry_equiv_pos_as_xyz
   1   '-x+1/2, y+1/2, -z'
   2   'x+1/2, -y+1/2, -z'
   3   'x, y, -z'
   4   '-x, -y, -z'
   5   'x+1/2, -y+1/2, z'
   6   '-x+1/2, y+1/2, z'
   7   '-x, -y, z'
   8   'x, y, z'
   9   '-x, y+1/2, -z+1/2'
  10   'x, -y+1/2, -z+1/2'
  11   'x+1/2, y, -z+1/2'
  12   '-x+1/2, -y, -z+1/2'
  13   'x, -y+1/2, z+1/2'
  14   '-x, y+1/2, z+1/2'
  15   '-x+1/2, -y, z+1/2'
  16   'x+1/2, y, z+1/2'
loop_
_atom_type_symbol
_atom_type_oxidation_number
Mo2+     2.
Cl1-     -1.
loop_
_atom_site_label
_atom_site_type_symbol
_atom_site_symmetry_multiplicity
_atom_site_Wyckoff_symbol
_atom_site_fract_x
_atom_site_fract_y
_atom_site_fract_z
_atom_site_B_iso_or_equiv
_atom_site_occupancy
Mo1 Mo2+ 8 d 0 0 0.1318(30) 0.84 1.
Mo2 Mo2+ 8 f 0.1502(30) 0.0649(30) 0 0.79 1.
Mo3 Mo2+ 8 f 0.9343(30) 0.1504(30) 0 0.89 1.
Cl1 Cl1- 16 g 0.083(9) 0.202(9) 0.123(9) 0.72 1.
Cl2 Cl1- 16 g 0.205(9) 0.919(9) 0.123(9) 0.72 1.
Cl3 Cl1- 8 d 0 0 0.301(9) 0.96 1.
Cl4 Cl1- 8 f 0.359(9) 0.143(9) 0 1.22 1.
#End of data_26110-ICSD

###############################################################################
# Schaefer, H.;von Schnering, H.G.;Tillack, J.V.;Kuhnen, F.;Woehrle, H.;\
# Baumann, H. (1967)
# Zeitschrift fuer Anorg. und Allgemeine Chemie 353, 281-310
# Neue Untersuchungen ueber die Chloride des Molybdaens
# 
# CIF by ICSD-for-WWW,  Copyright 2003 FIZ-Karlsruhe & A.W.Hewat (hewat@ill.fr)
# NOT TO BE PUBLISHED IN ANY FORM. See http://icsd.ill.fr/icsd/conditions.html
###############################################################################

data_26109-ICSD
_database_code_ICSD                26109
_audit_creation_date               1980-01-01
_chemical_name_systematic
'Molybdenum(III) chloride - beta'
_chemical_formula_structural       
'Mo Cl3'
_chemical_formula_sum              
'Cl3 Mo1'
_publ_section_title                
'Cl3 Mo1'
loop_
_citation_id
_citation_journal_abbrev
_citation_year
_citation_journal_volume
_citation_page_first
_citation_page_last
_citation_journal_id_ASTM
primary 'Zeitschrift fuer Anorg. und Allgemeine C' 1967 353 281 310 ZAACAB
loop_
_publ_author_name
Schaefer, H.;von Schnering, H.G.;Tillack, J.V.;Kuhnen, F.;Woehrle, H.;\
Baumann, H.
_cell_length_a                     6.115
_cell_length_b                     9.814
_cell_length_c                     11.906
_cell_angle_alpha                  90.
_cell_angle_beta                   91.
_cell_angle_gamma                  90.
_cell_volume                       714.4004
_cell_formula_units_Z              8.000
_symmetry_space_group_name_H-M     'C 1 2/c 1'
_symmetry_Int_Tables_number        15
loop_
_symmetry_equiv_pos_site_id
_symmetry_equiv_pos_as_xyz
   1   'x, -y, z+1/2'
   2   '-x, -y, -z'
   3   '-x, y, -z+1/2'
   4   'x, y, z'
   5   'x+1/2, -y+1/2, z+1/2'
   6   '-x+1/2, -y+1/2, -z'
   7   '-x+1/2, y+1/2, -z+1/2'
   8   'x+1/2, y+1/2, z'
loop_
_atom_type_symbol
_atom_type_oxidation_number
Mo3+     3.
Cl1-     -1.
loop_
_atom_site_label
_atom_site_type_symbol
_atom_site_symmetry_multiplicity
_atom_site_Wyckoff_symbol
_atom_site_fract_x
_atom_site_fract_y
_atom_site_fract_z
_atom_site_B_iso_or_equiv
_atom_site_occupancy
Mo1 Mo3+ 4 e 0 0.025 0.25 0. 1.
Mo2 Mo3+ 4 e 0 0.309 0.25 0. 1.
Cl1 Cl1- 8 f -.185 0.167 0.387 0. 1.
Cl2 Cl1- 8 f -.15 0.497 0.363 0. 1.
Cl3 Cl1- 8 f -.15 0.837 0.363 0. 1.
#End of data_26109-ICSD

###############################################################################
# Sands, D.E.;Zalkin, A. (1959)
# Acta Crystallographica (1,1948-23,1967) 12, 723-726
# The Crystal Structure of Mo Cl5
# 
# CIF by ICSD-for-WWW,  Copyright 2003 FIZ-Karlsruhe & A.W.Hewat (hewat@ill.fr)
# NOT TO BE PUBLISHED IN ANY FORM. See http://icsd.ill.fr/icsd/conditions.html
###############################################################################

data_26500-ICSD
_database_code_ICSD                26500
_audit_creation_date               1980-01-01
_chemical_name_systematic
'Molybdenum(V) chloride'
_chemical_formula_structural       
'Mo Cl5'
_chemical_formula_sum              
'Cl5 Mo1'
_publ_section_title                
'Cl5 Mo1'
loop_
_citation_id
_citation_journal_abbrev
_citation_year
_citation_journal_volume
_citation_page_first
_citation_page_last
_citation_journal_id_ASTM
primary 'Acta Crystallographica (1,1948-23,1967)' 1959 12 723 726 ACCRA9
loop_
_publ_author_name
Sands, D.E.;Zalkin, A.
_cell_length_a                     17.31(1)
_cell_length_b                     17.81(1)
_cell_length_c                     6.079(5)
_cell_angle_alpha                  90.
_cell_angle_beta                   95.7(1)
_cell_angle_gamma                  90.
_cell_volume                       1864.8409
_cell_formula_units_Z              12.000
_symmetry_space_group_name_H-M     'C 1 2/m 1'
_symmetry_Int_Tables_number        12
_refine_ls_R_factor_all            0.1658
loop_
_symmetry_equiv_pos_site_id
_symmetry_equiv_pos_as_xyz
   1   '-x, y, -z'
   2   '-x, -y, -z'
   3   'x, -y, z'
   4   'x, y, z'
   5   '-x+1/2, y+1/2, -z'
   6   '-x+1/2, -y+1/2, -z'
   7   'x+1/2, -y+1/2, z'
   8   'x+1/2, y+1/2, z'
loop_
_atom_type_symbol
_atom_type_oxidation_number
Mo5+     5.
Cl1-     -1.
loop_
_atom_site_label
_atom_site_type_symbol
_atom_site_symmetry_multiplicity
_atom_site_Wyckoff_symbol
_atom_site_fract_x
_atom_site_fract_y
_atom_site_fract_z
_atom_site_B_iso_or_equiv
_atom_site_occupancy
Mo1 Mo5+ 4 g 0 0.1078(7) 0 2.1 1.
Mo2 Mo5+ 8 j 0.3333(4) 0.1085(4) 0.4348(12) 2.2 1.
Cl1 Cl1- 4 i 0.079(2) 0 0.867(5) 2.2 1.
Cl2 Cl1- 8 j 0.077(2) 0.192(2) 0.855(5) 4.8 1.
Cl3 Cl1- 8 j 0.075(1) 0.094(1) 0.323(4) 2.8 1.
Cl4 Cl1- 4 i 0.260(2) 0 0.243(6) 3.5 1.
Cl5 Cl1- 8 j 0.259(2) 0.193(2) 0.238(5) 4. 1.
Cl6 Cl1- 8 j 0.253(1) 0.093(1) 0.698(4) 3.4 1.
Cl7 Cl1- 4 i 0.407(2) 0 0.628(6) 2.7 1.
Cl8 Cl1- 8 j 0.407(2) 0.193(2) 0.629(5) 4.1 1.
Cl9 Cl1- 8 j 0.414(1) 0.094(1) 0.167(4) 3.2 1.
#End of data_26500-ICSD

