###############################################################################
# Sunshine, S.A.;Ibers, J.A. (1985)
# Inorganic Chemistry 24, 3611-3614
# Structure and physical properties of the new layered ternary chalcogenides \
# Ta2 Ni S5 and Ta2 Ni Se5
# 
# CIF by ICSD-for-WWW,  Copyright 2003 FIZ-Karlsruhe & A.W.Hewat (hewat@ill.fr)
# NOT TO BE PUBLISHED IN ANY FORM. See http://icsd.ill.fr/icsd/conditions.html
###############################################################################

data_61148-ICSD
_database_code_ICSD                61148
_audit_creation_date               1986-12-03
_chemical_name_systematic
'Nickel ditantalum pentaselenide'
_chemical_formula_structural       
'Ta2 Ni Se5'
_chemical_formula_sum              
'Ni1 Se5 Ta2'
_publ_section_title                
'Ni1 Se5 Ta2'
loop_
_citation_id
_citation_journal_abbrev
_citation_year
_citation_journal_volume
_citation_page_first
_citation_page_last
_citation_journal_id_ASTM
primary 'Inorganic Chemistry' 1985 24 3611 3614 INOCAJ
loop_
_publ_author_name
Sunshine, S.A.;Ibers, J.A.
_cell_length_a                     3.496(1)
_cell_length_b                     12.829(3)
_cell_length_c                     15.641(4)
_cell_angle_alpha                  90.
_cell_angle_beta                   90.53(1)
_cell_angle_gamma                  90.
_cell_volume                       701.4701
_cell_formula_units_Z              4.000
_symmetry_space_group_name_H-M     'C 1 2/c 1'
_symmetry_Int_Tables_number        15
_refine_ls_R_factor_all            0.0505
loop_
_symmetry_equiv_pos_site_id
_symmetry_equiv_pos_as_xyz
   1   'x, -y, z+1/2'
   2   '-x, -y, -z'
   3   '-x, y, -z+1/2'
   4   'x, y, z'
   5   'x+1/2, -y+1/2, z+1/2'
   6   '-x+1/2, -y+1/2, -z'
   7   '-x+1/2, y+1/2, -z+1/2'
   8   'x+1/2, y+1/2, z'
loop_
_atom_type_symbol
_atom_type_oxidation_number
Ta0+     0.
Ni0+     0.
Se0+     0.
loop_
_atom_site_label
_atom_site_type_symbol
_atom_site_symmetry_multiplicity
_atom_site_Wyckoff_symbol
_atom_site_fract_x
_atom_site_fract_y
_atom_site_fract_z
_atom_site_B_iso_or_equiv
_atom_site_occupancy
Ta1 Ta0+ 8 f -.00793(14) 0.221350(37) 0.110440(29) .9 1.
Ni1 Ni0+ 4 e 0 0.70113(18) 0.25 1.0 1.
Se1 Se0+ 8 f 0.50530(34) 0.080380(93) 0.137980(74) 1.0 1.
Se2 Se0+ 8 f -.00513(33) 0.145650(92) 0.950870(73) .9 1.
Se3 Se0+ 4 e 0 0.32714(13) 0.25 .9 1.
#End of data_61148-ICSD

