###############################################################################
# Zheng, Y.-Q.;Peters, K.;von Schnering, H.G. (1998)
# Zeitschrift fuer Krist. - New Crystal Structures 213, 471-471
# Crystal structure of tungsten pentabromide, W Br5
# 
# CIF by ICSD-for-WWW,  Copyright 2003 FIZ-Karlsruhe & A.W.Hewat (hewat@ill.fr)
# NOT TO BE PUBLISHED IN ANY FORM. See http://icsd.ill.fr/icsd/conditions.html
###############################################################################

data_409227-ICSD
_database_code_ICSD                409227
_audit_creation_date               1999-06-02
_chemical_name_systematic
'Tungsten(V) bromide'
_chemical_formula_structural       
'W Br5'
_chemical_formula_sum              
'Br5 W1'
_publ_section_title                
'Br5 W1'
loop_
_citation_id
_citation_journal_abbrev
_citation_year
_citation_journal_volume
_citation_page_first
_citation_page_last
_citation_journal_id_ASTM
primary 'Zeitschrift fuer Krist. - New Crystal St' 1998 213 471 471 ZKNSFT
loop_
_publ_author_name
Zheng, Y.-Q.;Peters, K.;von Schnering, H.G.
_cell_length_a                     19.1090(30)
_cell_length_b                     18.5940(40)
_cell_length_c                     6.088(1)
_cell_angle_alpha                  90.
_cell_angle_beta                   90.43(1)
_cell_angle_gamma                  90.
_cell_volume                       2163.081
_cell_formula_units_Z              12.000
_symmetry_space_group_name_H-M     'C 1 2/m 1'
_symmetry_Int_Tables_number        12
_refine_ls_R_factor_all            0.0703
loop_
_symmetry_equiv_pos_site_id
_symmetry_equiv_pos_as_xyz
   1   '-x, y, -z'
   2   '-x, -y, -z'
   3   'x, -y, z'
   4   'x, y, z'
   5   '-x+1/2, y+1/2, -z'
   6   '-x+1/2, -y+1/2, -z'
   7   'x+1/2, -y+1/2, z'
   8   'x+1/2, y+1/2, z'
loop_
_atom_type_symbol
_atom_type_oxidation_number
W5+     5.
Br1-     -1.
loop_
_atom_site_label
_atom_site_type_symbol
_atom_site_symmetry_multiplicity
_atom_site_Wyckoff_symbol
_atom_site_fract_x
_atom_site_fract_y
_atom_site_fract_z
_atom_site_B_iso_or_equiv
_atom_site_occupancy
W1 W5+ 4 g 0 0.1081(1) 0 0. 1.
W2 W5+ 8 j 0.33329(8) 0.10811(7) 0.5188(2) 0. 1.
Br1 Br1- 4 i 0.0536(3) 0 0.2350(9) 0. 1.
Br2 Br1- 8 j 0.0544(2) 0.1945(2) 0.2419(7) 0. 1.
Br3 Br1- 8 j 0.1030(2) 0.0959(2) 0.7723(7) 0. 1.
Br4 Br1- 4 i 0.2799(3) 0 0.7503(8) 0. 1.
Br5 Br1- 8 j 0.2786(2) 0.1942(2) 0.7589(7) 0. 1.
Br6 Br1- 8 j 0.2302(2) 0.0958(2) 0.2870(7) 0. 1.
Br7 Br1- 4 i 0.3861(3) 0 0.2864(8) 0. 1.
Br8 Br1- 8 j 0.3876(2) 0.1938(2) 0.2776(6) 0. 1.
Br9 Br1- 8 j 0.4360(2) 0.0959(2) 0.7513(6) 0. 1.
loop_
_atom_site_aniso_label
_atom_site_aniso_type_symbol
_atom_site_aniso_U_11
_atom_site_aniso_U_22
_atom_site_aniso_U_33
_atom_site_aniso_U_12
_atom_site_aniso_U_13
_atom_site_aniso_U_23
W1 W5+ 0.010(1) 0.008(1) 0.017(1) 0 -.005(8) 0
W2 W5+ 0.0179(9) 0.0084(8) 0.0140(9) 0.0005(7) -.0006(6) 0
Br1 Br1- 0.018(3) 0.009(3) 0.024(3) 0 -.008(2) 0
Br2 Br1- 0.036(2) 0.021(2) 0.033(3) -.006(2) -.009(2) -.008(2)
Br3 Br1- 0.025(2) 0.023(2) 0.030(2) -.002(2) 0.009(2) -.001(2)
Br4 Br1- 0.019(2) 0.011(3) 0.016(3) 0 0.005(2) 0
Br5 Br1- 0.035(2) 0.023(2) 0.028(2) 0.008(2) 0.004(2) -.008(2)
Br6 Br1- 0.019(2) 0.026(2) 0.027(2) 0.001(2) -.010(2) 0.003(2)
Br7 Br1- 0.019(3) 0.014(3) 0.017(3) 0 0.004(2) 0
Br8 Br1- 0.034(2) 0.019(2) 0.024(2) 0.007(2) 0.003(2) 0.007(2)
Br9 Br1- 0.020(2) 0.027(2) 0.025(2) 0.000(2) -.011(2) -.003(2)
#End of data_409227-ICSD

###############################################################################
# Zheng, Y.-Q.;Peters, K.;Hoenle, W.;Grin', Yu.;von Schnering, H.G. (1997)
# Zeitschrift fuer Krist. (149,1979-) 212, 453-457
# The crystal structure of tungsten(II)bromide, W6 Br12
# 
# CIF by ICSD-for-WWW,  Copyright 2003 FIZ-Karlsruhe & A.W.Hewat (hewat@ill.fr)
# NOT TO BE PUBLISHED IN ANY FORM. See http://icsd.ill.fr/icsd/conditions.html
###############################################################################

data_405808-ICSD
_database_code_ICSD                405808
_audit_creation_date               1997-11-10
_chemical_name_systematic
'Octa-mue3-bromo-tetrabromo-octahedro-hexatungsten'
_chemical_formula_structural       
'((W6 Br8) Br4)'
_chemical_formula_sum              
'Br12 W6'
_publ_section_title                
'Br12 W6'
loop_
_citation_id
_citation_journal_abbrev
_citation_year
_citation_journal_volume
_citation_page_first
_citation_page_last
_citation_journal_id_ASTM
primary 'Zeitschrift fuer Krist. (149,1979-)' 1997 212 453 457 ZEKRDZ
loop_
_publ_author_name
Zheng, Y.-Q.;Peters, K.;Hoenle, W.;Grin', Yu.;von Schnering, H.G.
_cell_length_a                     11.799(1)
_cell_length_b                     11.813(1)
_cell_length_c                     14.790(1)
_cell_angle_alpha                  90.
_cell_angle_beta                   90.
_cell_angle_gamma                  90.
_cell_volume                       2061.4502
_cell_formula_units_Z              4.000
_symmetry_space_group_name_H-M     'B b c m'
_symmetry_Int_Tables_number        64
_refine_ls_R_factor_all            0.0497
loop_
_symmetry_equiv_pos_site_id
_symmetry_equiv_pos_as_xyz
   1   '-x+1/2, y+1/2, -z'
   2   'x+1/2, -y+1/2, -z'
   3   'x, y, -z'
   4   '-x, -y, -z'
   5   'x+1/2, -y+1/2, z'
   6   '-x+1/2, y+1/2, z'
   7   '-x, -y, z'
   8   'x, y, z'
   9   '-x, y+1/2, -z+1/2'
  10   'x, -y+1/2, -z+1/2'
  11   'x+1/2, y, -z+1/2'
  12   '-x+1/2, -y, -z+1/2'
  13   'x, -y+1/2, z+1/2'
  14   '-x, y+1/2, z+1/2'
  15   '-x+1/2, -y, z+1/2'
  16   'x+1/2, y, z+1/2'
loop_
_atom_type_symbol
_atom_type_oxidation_number
W2+     2.
Br1-     -1.
loop_
_atom_site_label
_atom_site_type_symbol
_atom_site_symmetry_multiplicity
_atom_site_Wyckoff_symbol
_atom_site_fract_x
_atom_site_fract_y
_atom_site_fract_z
_atom_site_B_iso_or_equiv
_atom_site_occupancy
W1 W2+ 8 d 0 0 0.1259(1) 0. 1.
W2 W2+ 8 f 0.1429(2) 0.0664(2) 0 0. 1.
W3 W2+ 8 f 0.9332(2) 0.1429(2) 0 0. 1.
Br1 Br1- 16 g 0.0765(3) 0.2096(3) 0.1245(3) 0. 1.
Br2 Br1- 16 g 0.2087(3) 0.9233(3) 0.1248(2) 0. 1.
Br3 Br1- 8 d 0 0 0.2983(2) 0. 1.
Br4 Br1- 8 f 0.3527(4) 0.1471(4) 0 0. 1.
loop_
_atom_site_aniso_label
_atom_site_aniso_type_symbol
_atom_site_aniso_U_11
_atom_site_aniso_U_22
_atom_site_aniso_U_33
_atom_site_aniso_U_12
_atom_site_aniso_U_13
_atom_site_aniso_U_23
W1 W2+ 0.030(2) 0.0105(9) 0.0262(7) 0.0000(6) 0 0
W2 W2+ 0.0205(9) 0.0160(7) 0.025(1) -.0018(7) 0 0
W3 W2+ 0.0234(9) 0.0167(7) 0.024(1) -.0004(7) 0 0
Br1 Br1- 0.032(2) 0.023(1) 0.029(2) -.003(1) -.001(2) -.005(1)
Br2 Br1- 0.029(2) 0.027(2) 0.032(2) 0.001(1) -.007(2) 0.002(2)
Br3 Br1- 0.045(5) 0.039(4) 0.026(2) -.006(2) 0 0
Br4 Br1- 0.024(3) 0.021(2) 0.053(3) -.004(2) 0 0
#End of data_405808-ICSD

###############################################################################
# Sassmannshausen, J.;von Schnering, H.G. (1994)
# Zeitschrift fuer Anorg. und Allgemeine Chemie 620, 1312-1320
# Synthese und Kristallstruktur der molekularen Clusterverbindung W6Br14
# 
# CIF by ICSD-for-WWW,  Copyright 2003 FIZ-Karlsruhe & A.W.Hewat (hewat@ill.fr)
# NOT TO BE PUBLISHED IN ANY FORM. See http://icsd.ill.fr/icsd/conditions.html
###############################################################################

data_74855-ICSD
_database_code_ICSD                74855
_audit_creation_date               1995-10-17
_chemical_name_systematic
'Hexabromo-octa-mue3-bromo-octahedro-tungsten'
_chemical_formula_structural       
'W6 Br14'
_chemical_formula_sum              
'Br14 W6'
_publ_section_title                
'Br14 W6'
loop_
_citation_id
_citation_journal_abbrev
_citation_year
_citation_journal_volume
_citation_page_first
_citation_page_last
_citation_journal_id_ASTM
primary 'Zeitschrift fuer Anorg. und Allgemeine C' 1994 620 1312 1320 ZAACAB
loop_
_publ_author_name
Sassmannshausen, J.;von Schnering, H.G.
_cell_length_a                     13.458(1)
_cell_length_b                     13.458(1)
_cell_length_c                     13.458(1)
_cell_angle_alpha                  90.
_cell_angle_beta                   90.
_cell_angle_gamma                  90.
_cell_volume                       2437.4802
_cell_formula_units_Z              4.000
_symmetry_space_group_name_H-M     'P n -3'
_symmetry_Int_Tables_number        201
_refine_ls_R_factor_all            0.0749
loop_
_symmetry_equiv_pos_site_id
_symmetry_equiv_pos_as_xyz
   1   '-z, x+1/2, y+1/2'
   2   'z+1/2, x+1/2, -y'
   3   'z+1/2, -x, y+1/2'
   4   '-z, -x, -y'
   5   'y+1/2, -z, x+1/2'
   6   '-y, z+1/2, x+1/2'
   7   'y+1/2, z+1/2, -x'
   8   '-y, -z, -x'
   9   'x+1/2, y+1/2, -z'
  10   'x+1/2, -y, z+1/2'
  11   '-x, y+1/2, z+1/2'
  12   '-x, -y, -z'
  13   'z, -x+1/2, -y+1/2'
  14   '-z+1/2, -x+1/2, y'
  15   '-z+1/2, x, -y+1/2'
  16   'z, x, y'
  17   '-y+1/2, z, -x+1/2'
  18   'y, -z+1/2, -x+1/2'
  19   '-y+1/2, -z+1/2, x'
  20   'y, z, x'
  21   '-x+1/2, -y+1/2, z'
  22   '-x+1/2, y, -z+1/2'
  23   'x, -y+1/2, -z+1/2'
  24   'x, y, z'
loop_
_atom_type_symbol
_atom_type_oxidation_number
W2+3     2.33
Br1-     -1.
loop_
_atom_site_label
_atom_site_type_symbol
_atom_site_symmetry_multiplicity
_atom_site_Wyckoff_symbol
_atom_site_fract_x
_atom_site_fract_y
_atom_site_fract_z
_atom_site_B_iso_or_equiv
_atom_site_occupancy
W1 W2+3 24 h 0.1320(1) -.0277(1) 0.0351(2) 0. 1.
Br1 Br1- 8 e 0.1383(3) 0.1383(3) 0.1383(3) 0. 1.
Br2 Br1- 24 h 0.1916(4) 0.0668(4) 0.8774(4) 0. 1.
Br3 Br1- 24 h 0.3111(4) -.0695(4) 0.0861(4) 0. 1.
loop_
_atom_site_aniso_label
_atom_site_aniso_type_symbol
_atom_site_aniso_U_11
_atom_site_aniso_U_22
_atom_site_aniso_U_33
_atom_site_aniso_U_12
_atom_site_aniso_U_13
_atom_site_aniso_U_23
W1 W2+3 0.0157(15) 0.0252(16) 0.0271(16) -.0007(10) -.0022(10) -.0017(11)
Br1 Br1- 0.0422(29) 0.0422(29) 0.0422(29) -.0125(27) -.0125(27) -.0125(27)
Br2 Br1- 0.0270(34) 0.0378(34) 0.0406(39) -.0006(26) 0.0097(25) -.0025(26)
Br3 Br1- 0.0248(37) 0.0664(41) 0.0491(43) -.0036(29) -.0101(29) 0.0133(34)
#End of data_74855-ICSD

###############################################################################
# Willing, W.;Mueller, U. (1987)
# Acta Crystallographica C (39,1983-) 43, 1425-1426
# Wolframhexabromid
# 
# CIF by ICSD-for-WWW,  Copyright 2003 FIZ-Karlsruhe & A.W.Hewat (hewat@ill.fr)
# NOT TO BE PUBLISHED IN ANY FORM. See http://icsd.ill.fr/icsd/conditions.html
###############################################################################

data_62048-ICSD
_database_code_ICSD                62048
_audit_creation_date               1988-02-22
_chemical_name_systematic
'Tungsten bromide'
_chemical_formula_structural       
'W Br6'
_chemical_formula_sum              
'Br6 W1'
_publ_section_title                
'Br6 W1'
loop_
_citation_id
_citation_journal_abbrev
_citation_year
_citation_journal_volume
_citation_page_first
_citation_page_last
_citation_journal_id_ASTM
primary 'Acta Crystallographica C (39,1983-)' 1987 43 1425 1426 ACSCEE
loop_
_publ_author_name
Willing, W.;Mueller, U.
_cell_length_a                     6.394(2)
_cell_length_b                     6.394(2)
_cell_length_c                     17.53(1)
_cell_angle_alpha                  90.
_cell_angle_beta                   90.
_cell_angle_gamma                  120.
_cell_volume                       620.6709
_cell_formula_units_Z              3.000
_symmetry_space_group_name_H-M     'R -3'
_symmetry_Int_Tables_number        148
_refine_ls_R_factor_all            0.1423
loop_
_symmetry_equiv_pos_site_id
_symmetry_equiv_pos_as_xyz
   1   'x-y, x, -z'
   2   'y, -x+y, -z'
   3   '-x, -y, -z'
   4   '-x+y, -x, z'
   5   '-y, x-y, z'
   6   'x, y, z'
   7   'x-y+2/3, x+1/3, -z+1/3'
   8   'y+2/3, -x+y+1/3, -z+1/3'
   9   '-x+2/3, -y+1/3, -z+1/3'
  10   '-x+y+2/3, -x+1/3, z+1/3'
  11   '-y+2/3, x-y+1/3, z+1/3'
  12   'x+2/3, y+1/3, z+1/3'
  13   'x-y+1/3, x+2/3, -z+2/3'
  14   'y+1/3, -x+y+2/3, -z+2/3'
  15   '-x+1/3, -y+2/3, -z+2/3'
  16   '-x+y+1/3, -x+2/3, z+2/3'
  17   '-y+1/3, x-y+2/3, z+2/3'
  18   'x+1/3, y+2/3, z+2/3'
loop_
_atom_type_symbol
_atom_type_oxidation_number
W6+     6.
Br1-     -1.
loop_
_atom_site_label
_atom_site_type_symbol
_atom_site_symmetry_multiplicity
_atom_site_Wyckoff_symbol
_atom_site_fract_x
_atom_site_fract_y
_atom_site_fract_z
_atom_site_B_iso_or_equiv
_atom_site_occupancy
W1 W6+ 3 a 0 0 0 0. 1.
Br1 Br1- 18 f 0.3157(4) 0.0049(5) -.0808(1) 0. 1.
loop_
_atom_site_aniso_label
_atom_site_aniso_type_symbol
_atom_site_aniso_U_11
_atom_site_aniso_U_22
_atom_site_aniso_U_33
_atom_site_aniso_U_12
_atom_site_aniso_U_13
_atom_site_aniso_U_23
W1 W6+ 0.0154(10) 0.0154(10) 0.018(1) 0.0077(5) 0 0
Br1 Br1- 0.033(2) 0.043(2) 0.030(1) 0.022(1) 0 0
#End of data_62048-ICSD

###############################################################################
# Siepmann, R.;von Schnering, H.G. (1968)
# Zeitschrift fuer Anorg. und Allgemeine Chemie 357, 289-298
# Die Kristallstruktur von W6 Br16
# 
# CIF by ICSD-for-WWW,  Copyright 2003 FIZ-Karlsruhe & A.W.Hewat (hewat@ill.fr)
# NOT TO BE PUBLISHED IN ANY FORM. See http://icsd.ill.fr/icsd/conditions.html
###############################################################################

data_25703-ICSD
_database_code_ICSD                25703
_audit_creation_date               1986-10-16
_chemical_name_systematic
'Tungsten bromide (6/16)'
_chemical_formula_structural       
'W6 Br16'
_chemical_formula_sum              
'Br16 W6'
_publ_section_title                
'Br16 W6'
loop_
_citation_id
_citation_journal_abbrev
_citation_year
_citation_journal_volume
_citation_page_first
_citation_page_last
_citation_journal_id_ASTM
primary 'Zeitschrift fuer Anorg. und Allgemeine C' 1968 357 289 298 ZAACAB
loop_
_publ_author_name
Siepmann, R.;von Schnering, H.G.
_cell_length_a                     14.606(5)
_cell_length_b                     14.262(5)
_cell_length_c                     12.071(5)
_cell_angle_alpha                  90.
_cell_angle_beta                   90.
_cell_angle_gamma                  90.
_cell_volume                       2514.5201
_cell_formula_units_Z              4.000
_symmetry_space_group_name_H-M     'B b c m'
_symmetry_Int_Tables_number        64
_refine_ls_R_factor_all            0.1207
loop_
_symmetry_equiv_pos_site_id
_symmetry_equiv_pos_as_xyz
   1   '-x+1/2, y+1/2, -z'
   2   'x+1/2, -y+1/2, -z'
   3   'x, y, -z'
   4   '-x, -y, -z'
   5   'x+1/2, -y+1/2, z'
   6   '-x+1/2, y+1/2, z'
   7   '-x, -y, z'
   8   'x, y, z'
   9   '-x, y+1/2, -z+1/2'
  10   'x, -y+1/2, -z+1/2'
  11   'x+1/2, y, -z+1/2'
  12   '-x+1/2, -y, -z+1/2'
  13   'x, -y+1/2, z+1/2'
  14   '-x, y+1/2, z+1/2'
  15   '-x+1/2, -y, z+1/2'
  16   'x+1/2, y, z+1/2'
loop_
_atom_type_symbol
_atom_type_oxidation_number
W3+     3.
W2+     2.
Br1-     -1.
loop_
_atom_site_label
_atom_site_type_symbol
_atom_site_symmetry_multiplicity
_atom_site_Wyckoff_symbol
_atom_site_fract_x
_atom_site_fract_y
_atom_site_fract_z
_atom_site_B_iso_or_equiv
_atom_site_occupancy
W1 W3+ 16 g 0.075 0.05 0.11 0.8 1.
W2 W2+ 8 f 0.073 0.894 0 1.5 1.
Br1 Br1- 16 g 0.073 0.892 0.21 1.4 1.
Br2 Br1- 8 f 0.075 0.21 0 1. 1.
Br3 Br1- 8 f 0.218 0.994 0 1.6 1.
Br4 Br1- 16 g 0.175 0.123 0.259 1.3 1.
Br5 Br1- 8 f 0.172 0.736 0 1.9 1.
Br6 Br1- 8 f 0.05 0.932 0.5 1.6 1.
#End of data_25703-ICSD

