###############################################################################
# Palatnik, L.S.;Obol'yaninova, O.A.;Naboka, M.N.;Gladkikh, N.T. (1973)
# Izvestiya Akademii Nauk SSSR, Neorganicheskie Materialy 9, 718-720
# New modifications of tungsten oxides
# 
# CIF by ICSD-for-WWW,  Copyright 2003 FIZ-Karlsruhe & A.W.Hewat (hewat@ill.fr)
# NOT TO BE PUBLISHED IN ANY FORM. See http://icsd.ill.fr/icsd/conditions.html
###############################################################################

data_108651-ICSD
_database_code_ICSD                108651
_audit_creation_date               2006-10-01
_chemical_name_systematic
'Tungsten oxide'
_chemical_formula_structural       
'W O3'
_chemical_formula_sum              
'O3 W1'
_publ_section_title                
'O3 W1'
loop_
_citation_id
_citation_journal_abbrev
_citation_year
_citation_journal_volume
_citation_page_first
_citation_page_last
_citation_journal_id_ASTM
primary 'Izvestiya Akademii Nauk SSSR, Neorganich' 1973 9 718 720 IVNMAW
loop_
_publ_author_name
Palatnik, L.S.;Obol'yaninova, O.A.;Naboka, M.N.;Gladkikh, N.T.
_cell_length_a                     3.838(2)
_cell_length_b                     3.838(2)
_cell_length_c                     3.838(2)
_cell_angle_alpha                  90.
_cell_angle_beta                   90.
_cell_angle_gamma                  90.
_cell_volume                       56.5301
_cell_formula_units_Z              1.000
_symmetry_space_group_name_H-M     'P m -3 m'
_symmetry_Int_Tables_number        221
_refine_ls_R_factor_all            0.1702
loop_
_symmetry_equiv_pos_site_id
_symmetry_equiv_pos_as_xyz
   1   'z, y, -x'
   2   'y, x, -z'
   3   'x, z, -y'
   4   'z, x, -y'
   5   'y, z, -x'
   6   'x, y, -z'
   7   'z, -y, x'
   8   'y, -x, z'
   9   'x, -z, y'
  10   'z, -x, y'
  11   'y, -z, x'
  12   'x, -y, z'
  13   '-z, y, x'
  14   '-y, x, z'
  15   '-x, z, y'
  16   '-z, x, y'
  17   '-y, z, x'
  18   '-x, y, z'
  19   '-z, -y, -x'
  20   '-y, -x, -z'
  21   '-x, -z, -y'
  22   '-z, -x, -y'
  23   '-y, -z, -x'
  24   '-x, -y, -z'
  25   '-z, -y, x'
  26   '-y, -x, z'
  27   '-x, -z, y'
  28   '-z, -x, y'
  29   '-y, -z, x'
  30   '-x, -y, z'
  31   '-z, y, -x'
  32   '-y, x, -z'
  33   '-x, z, -y'
  34   '-z, x, -y'
  35   '-y, z, -x'
  36   '-x, y, -z'
  37   'z, -y, -x'
  38   'y, -x, -z'
  39   'x, -z, -y'
  40   'z, -x, -y'
  41   'y, -z, -x'
  42   'x, -y, -z'
  43   'z, y, x'
  44   'y, x, z'
  45   'x, z, y'
  46   'z, x, y'
  47   'y, z, x'
  48   'x, y, z'
loop_
_atom_type_symbol
_atom_type_oxidation_number
W6+     6.
O2-     -2.
loop_
_atom_site_label
_atom_site_type_symbol
_atom_site_symmetry_multiplicity
_atom_site_Wyckoff_symbol
_atom_site_fract_x
_atom_site_fract_y
_atom_site_fract_z
_atom_site_B_iso_or_equiv
_atom_site_occupancy
W1 W6+ 1 a 0 0 0 0. 1.
O1 O2- 3 d 0.5 0 0 0. 1.
#End of data_108651-ICSD

###############################################################################
# Salje, E. (1977)
# Acta Crystallographica B (24,1968-38,1982) 33, 574-577
# The orthorhombic phase of W O3
# 
# CIF by ICSD-for-WWW,  Copyright 2003 FIZ-Karlsruhe & A.W.Hewat (hewat@ill.fr)
# NOT TO BE PUBLISHED IN ANY FORM. See http://icsd.ill.fr/icsd/conditions.html
###############################################################################

data_654048-ICSD
_database_code_ICSD                654048
_audit_creation_date               2008-08-01
_chemical_name_systematic
'Tungsten oxide'
_chemical_formula_structural       
'W O3'
_chemical_formula_sum              
'O3 W1'
_publ_section_title                
'O3 W1'
loop_
_citation_id
_citation_journal_abbrev
_citation_year
_citation_journal_volume
_citation_page_first
_citation_page_last
_citation_journal_id_ASTM
primary 'Acta Crystallographica B (24,1968-38,198' 1977 33 574 577 ACBCAR
loop_
_publ_author_name
Salje, E.
_cell_length_a                     7.570(4)
_cell_length_b                     7.341(4)
_cell_length_c                     7.754(4)
_cell_angle_alpha                  90.0
_cell_angle_beta                   90.0
_cell_angle_gamma                  90.0
_cell_volume                       430.9004
_cell_formula_units_Z              8.000
_symmetry_space_group_name_H-M     'P n m a'
_symmetry_Int_Tables_number        62
_refine_ls_R_factor_all            0.0613
loop_
_symmetry_equiv_pos_site_id
_symmetry_equiv_pos_as_xyz
   1   'x+1/2, y, -z+1/2'
   2   'x, -y+1/2, z'
   3   '-x+1/2, y+1/2, z+1/2'
   4   '-x, -y, -z'
   5   '-x+1/2, -y, z+1/2'
   6   '-x, y+1/2, -z'
   7   'x+1/2, -y+1/2, -z+1/2'
   8   'x, y, z'
loop_
_atom_type_symbol
_atom_type_oxidation_number
O0+     0.
W0+     0.
loop_
_atom_site_label
_atom_site_type_symbol
_atom_site_symmetry_multiplicity
_atom_site_Wyckoff_symbol
_atom_site_fract_x
_atom_site_fract_y
_atom_site_fract_z
_atom_site_B_iso_or_equiv
_atom_site_occupancy
O1 O0+ 4 a 0 0 0 0. 1
O2 O0+ 4 b 0 0 0.5 0. 1
O3 O0+ 4 c 0.269 0.25 0.973 0. 1
O4 O0+ 4 c 0.278 0.25 0.529 0. 1
O5 O0+ 4 c 0.004 0.25 0.738 0. 1
O6 O0+ 4 c 0.015 0.25 0.224 0. 1
W1 W0+ 4 c 0.029 0.25 0.969 0. 1
W2 W0+ 4 c 0.030 0.25 0.468 0. 1
#End of data_654048-ICSD

###############################################################################
# Locherer, K.R.;Salje, E.K.H. (1999)
# Phase Transition 69, 85-93
# The refinement of a tetragonal phase of W O3 using a novel PSD high \
# temperature X-ray powder diffractometer
# 
# CIF by ICSD-for-WWW,  Copyright 2003 FIZ-Karlsruhe & A.W.Hewat (hewat@ill.fr)
# NOT TO BE PUBLISHED IN ANY FORM. See http://icsd.ill.fr/icsd/conditions.html
###############################################################################

data_89092-ICSD
_database_code_ICSD                89092
_audit_creation_date               2001-07-16
_chemical_name_systematic
'Tungsten oxide - subcell'
_chemical_formula_structural       
'W O3'
_chemical_formula_sum              
'O3 W1'
_publ_section_title                
'O3 W1'
loop_
_citation_id
_citation_journal_abbrev
_citation_year
_citation_journal_volume
_citation_page_first
_citation_page_last
_citation_journal_id_ASTM
primary 'Phase Transition' 1999 69 85 93 PHTRDP
loop_
_publ_author_name
Locherer, K.R.;Salje, E.K.H.
_cell_length_a                     5.558(7)
_cell_length_b                     5.558
_cell_length_c                     3.745(5)
_cell_angle_alpha                  90.
_cell_angle_beta                   90.
_cell_angle_gamma                  90.
_cell_volume                       115.6908
_cell_formula_units_Z              2.000
_symmetry_space_group_name_H-M     'P 4/n m m'
_symmetry_Int_Tables_number        129
_refine_ls_R_factor_all            0.1234
loop_
_symmetry_equiv_pos_site_id
_symmetry_equiv_pos_as_xyz
   1   'y+1/2, x+1/2, -z'
   2   '-y, x+1/2, -z'
   3   'y+1/2, -x, -z'
   4   '-y, -x, -z'
   5   'x+1/2, y+1/2, -z'
   6   '-x, y+1/2, -z'
   7   'x+1/2, -y, -z'
   8   '-x, -y, -z'
   9   '-y+1/2, -x+1/2, z'
  10   'y, -x+1/2, z'
  11   '-y+1/2, x, z'
  12   'y, x, z'
  13   '-x+1/2, -y+1/2, z'
  14   'x, -y+1/2, z'
  15   '-x+1/2, y, z'
  16   'x, y, z'
loop_
_atom_type_symbol
_atom_type_oxidation_number
W6+     6.
O2-     -2.
loop_
_atom_site_label
_atom_site_type_symbol
_atom_site_symmetry_multiplicity
_atom_site_Wyckoff_symbol
_atom_site_fract_x
_atom_site_fract_y
_atom_site_fract_z
_atom_site_B_iso_or_equiv
_atom_site_occupancy
W1 W6+ 2 c 0.25 0.25 -.0729(4) 0.0070(6) 1.
O1 O2- 2 c 0.25 0.25 0.478(4) 0.019(6) 1.
O2 O2- 4 d 0 0 0 0.037(5) 1.
#End of data_89092-ICSD

###############################################################################
# Palmer, D.J.;Dickens, P.G. (1979)
# Acta Crystallographica B (24,1968-38,1982) 35, 2199-2201
# Tungsten dioxide. Structure refinement by powder neutron diffraction
# 
# CIF by ICSD-for-WWW,  Copyright 2003 FIZ-Karlsruhe & A.W.Hewat (hewat@ill.fr)
# NOT TO BE PUBLISHED IN ANY FORM. See http://icsd.ill.fr/icsd/conditions.html
###############################################################################

data_8217-ICSD
_database_code_ICSD                8217
_audit_creation_date               1980-01-01
_chemical_name_systematic
'Tungsten(IV) oxide'
_chemical_formula_structural       
'W O2'
_chemical_formula_sum              
'O2 W1'
_publ_section_title                
'O2 W1'
loop_
_citation_id
_citation_journal_abbrev
_citation_year
_citation_journal_volume
_citation_page_first
_citation_page_last
_citation_journal_id_ASTM
primary 'Acta Crystallographica B (24,1968-38,198' 1979 35 2199 2201 ACBCAR
loop_
_publ_author_name
Palmer, D.J.;Dickens, P.G.
_cell_length_a                     5.563(2)
_cell_length_b                     4.896(3)
_cell_length_c                     5.563(2)
_cell_angle_alpha                  90.
_cell_angle_beta                   120.47(1)
_cell_angle_gamma                  90.
_cell_volume                       130.5902
_cell_formula_units_Z              4.000
_symmetry_space_group_name_H-M     'P 1 21/c 1'
_symmetry_Int_Tables_number        14
_refine_ls_R_factor_all            0.0613
loop_
_symmetry_equiv_pos_site_id
_symmetry_equiv_pos_as_xyz
   1   'x, -y+1/2, z+1/2'
   2   '-x, -y, -z'
   3   '-x, y+1/2, -z+1/2'
   4   'x, y, z'
loop_
_atom_type_symbol
_atom_type_oxidation_number
W4+     4.
O2-     -2.
loop_
_atom_site_label
_atom_site_type_symbol
_atom_site_symmetry_multiplicity
_atom_site_Wyckoff_symbol
_atom_site_fract_x
_atom_site_fract_y
_atom_site_fract_z
_atom_site_B_iso_or_equiv
_atom_site_occupancy
W1 W4+ 4 e 0.2278(11) -.0102(14) 0.0111(12) 0.19 1.
O1 O2- 4 e 0.1119(11) 0.2186(11) 0.2334(8) 0.31 1.
O2 O2- 4 e 0.3900(9) 0.7024(12) 0.2986(9) 0.57 1.
#End of data_8217-ICSD

###############################################################################
# Salje, E.K.H.;Rehmann, S.;Pobell, F.;Morris, D.;Knight, K.S.;\
# Herrmannsdoerfer, T.;Dove, M.T. (1997)
# Journal of Physics: Condensed Matter 9, 6563-6577
# Crystal structure and paramagnetic behaviour of epsilon-(W O3-x)
# 
# CIF by ICSD-for-WWW,  Copyright 2003 FIZ-Karlsruhe & A.W.Hewat (hewat@ill.fr)
# NOT TO BE PUBLISHED IN ANY FORM. See http://icsd.ill.fr/icsd/conditions.html
###############################################################################

data_84164-ICSD
_database_code_ICSD                84164
_audit_creation_date               1999-01-19
_chemical_name_systematic
'Tungsten oxide - epsilon, LT'
_chemical_formula_structural       
'W O3'
_chemical_formula_sum              
'O3 W1'
_publ_section_title                
'O3 W1'
loop_
_citation_id
_citation_journal_abbrev
_citation_year
_citation_journal_volume
_citation_page_first
_citation_page_last
_citation_journal_id_ASTM
primary 'Journal of Physics: Condensed Matter' 1997 9 6563 6577 JCOMEL
loop_
_publ_author_name
Salje, E.K.H.;Rehmann, S.;Pobell, F.;Morris, D.;Knight, K.S.;\
Herrmannsdoerfer, T.;Dove, M.T.
_cell_length_a                     5.27766(1)
_cell_length_b                     5.16124(1)
_cell_length_c                     7.67402(1)
_cell_angle_alpha                  90.
_cell_angle_beta                   91.6890(2)
_cell_angle_gamma                  90.
_cell_volume                       208.9407
_cell_formula_units_Z              4.000
_symmetry_space_group_name_H-M     'P 1 c 1'
_symmetry_Int_Tables_number        7
_refine_ls_R_factor_all            0.0901
loop_
_symmetry_equiv_pos_site_id
_symmetry_equiv_pos_as_xyz
   1   'x, -y, z+1/2'
   2   'x, y, z'
loop_
_atom_type_symbol
_atom_type_oxidation_number
W6+     6.
O2-     -2.
loop_
_atom_site_label
_atom_site_type_symbol
_atom_site_symmetry_multiplicity
_atom_site_Wyckoff_symbol
_atom_site_fract_x
_atom_site_fract_y
_atom_site_fract_z
_atom_site_B_iso_or_equiv
_atom_site_occupancy
W1 W6+ 2 a -.0111(5) -.012(1) 0.6745(2) 0.07(3) 1.
W2 W6+ 2 a 0.5 0.470(1) 0.75 0.07(3) 1.
O1 O2- 2 a 0.492(2) 0.582(1) -.032(1) 0.45(2) 1.
O2 O2- 2 a 0.201(2) 0.298(1) 0.174(1) 0.45(2) 1.
O3 O2- 2 a 0.272(2) 0.776(1) 0.249(1) 0.45(2) 1.
O4 O2- 2 a 0.691(2) 0.205(1) 0.170(1) 0.45(2) 1.
O5 O2- 2 a 0.779(2) 0.714(1) 0.246(1) 0.45(2) 1.
O6 O2- 2 a -.013(2) 0.067(1) 0.454(1) 0.45(2) 1.
#End of data_84164-ICSD

###############################################################################
# Loopstra, B.O.;Boldrini, P. (1966)
# Acta Crystallographica (1,1948-23,1967) 21, 158-162
# Neutron diffraction investigation of W O3
# 
# CIF by ICSD-for-WWW,  Copyright 2003 FIZ-Karlsruhe & A.W.Hewat (hewat@ill.fr)
# NOT TO BE PUBLISHED IN ANY FORM. See http://icsd.ill.fr/icsd/conditions.html
###############################################################################

data_14332-ICSD
_database_code_ICSD                14332
_audit_creation_date               1986-09-25
_chemical_name_systematic
'Tungsten oxide'
_chemical_formula_structural       
'W O3'
_chemical_formula_sum              
'O3 W1'
_publ_section_title                
'O3 W1'
loop_
_citation_id
_citation_journal_abbrev
_citation_year
_citation_journal_volume
_citation_page_first
_citation_page_last
_citation_journal_id_ASTM
primary 'Acta Crystallographica (1,1948-23,1967)' 1966 21 158 162 ACCRA9
loop_
_publ_author_name
Loopstra, B.O.;Boldrini, P.
_cell_length_a                     7.297
_cell_length_b                     7.539
_cell_length_c                     7.688
_cell_angle_alpha                  90.
_cell_angle_beta                   90.91
_cell_angle_gamma                  90.
_cell_volume                       422.8806
_cell_formula_units_Z              8.000
_symmetry_space_group_name_H-M     'P 1 21/n 1'
_symmetry_Int_Tables_number        14
_refine_ls_R_factor_all            0.0659
loop_
_symmetry_equiv_pos_site_id
_symmetry_equiv_pos_as_xyz
   1   '-x+1/2, y+1/2, -z+1/2'
   2   '-x, -y, -z'
   3   'x+1/2, -y+1/2, z+1/2'
   4   'x, y, z'
loop_
_atom_type_symbol
_atom_type_oxidation_number
W6+     6.
O2-     -2.
loop_
_atom_site_label
_atom_site_type_symbol
_atom_site_symmetry_multiplicity
_atom_site_Wyckoff_symbol
_atom_site_fract_x
_atom_site_fract_y
_atom_site_fract_z
_atom_site_B_iso_or_equiv
_atom_site_occupancy
W1 W6+ 4 e 0.254(6) 0.037(5) 0.282(5) 0. 1.
W2 W6+ 4 e 0.250(9) 0.023(6) 0.784(5) 0. 1.
O1 O2- 4 e 0.005(5) 0.042(5) 0.211(4) 0. 1.
O2 O2- 4 e 0.993(6) 0.474(5) 0.218(5) 0. 1.
O3 O2- 4 e 0.288(3) 0.262(6) 0.286(3) 0. 1.
O4 O2- 4 e 0.211(3) 0.259(8) 0.730(3) 0. 1.
O5 O2- 4 e 0.292(6) 0.043(5) 0.008(4) 0. 1.
O6 O2- 4 e 0.279(7) 0.487(6) 0.993(3) 0. 1.
#End of data_14332-ICSD

###############################################################################
# Diehl, R.;Brandt, G.;Salje, E. (1978)
# Acta Crystallographica B (24,1968-38,1982) 34, 1105-1111
# The crystal structure of triclinic W O3
# 
# CIF by ICSD-for-WWW,  Copyright 2003 FIZ-Karlsruhe & A.W.Hewat (hewat@ill.fr)
# NOT TO BE PUBLISHED IN ANY FORM. See http://icsd.ill.fr/icsd/conditions.html
###############################################################################

data_1620-ICSD
_database_code_ICSD                1620
_audit_creation_date               1980-01-01
_chemical_name_systematic
'Tungsten oxide'
_chemical_formula_structural       
'W O3'
_chemical_formula_sum              
'O3 W1'
_publ_section_title                
'O3 W1'
loop_
_citation_id
_citation_journal_abbrev
_citation_year
_citation_journal_volume
_citation_page_first
_citation_page_last
_citation_journal_id_ASTM
primary 'Acta Crystallographica B (24,1968-38,198' 1978 34 1105 1111 ACBCAR
loop_
_publ_author_name
Diehl, R.;Brandt, G.;Salje, E.
_cell_length_a                     7.309(2)
_cell_length_b                     7.522(2)
_cell_length_c                     7.678(2)
_cell_angle_alpha                  88.81(2)
_cell_angle_beta                   90.92(2)
_cell_angle_gamma                  90.93(2)
_cell_volume                       421.9202
_cell_formula_units_Z              8.000
_symmetry_space_group_name_H-M     'P -1'
_symmetry_Int_Tables_number        2
_refine_ls_R_factor_all            0.0505
loop_
_symmetry_equiv_pos_site_id
_symmetry_equiv_pos_as_xyz
   1   '-x, -y, -z'
   2   'x, y, z'
loop_
_atom_type_symbol
_atom_type_oxidation_number
W6+     6.
O2-     -2.
loop_
_atom_site_label
_atom_site_type_symbol
_atom_site_symmetry_multiplicity
_atom_site_Wyckoff_symbol
_atom_site_fract_x
_atom_site_fract_y
_atom_site_fract_z
_atom_site_B_iso_or_equiv
_atom_site_occupancy
W1 W6+ 2 i 0.2566(1) 0.0259(1) 0.2850(1) 0. 1.
W2 W6+ 2 i 0.2502(1) 0.5280(1) 0.2158(1) 0. 1.
W3 W6+ 2 i 0.2438(1) 0.0313(1) 0.7817(1) 0. 1.
W4 W6+ 2 i 0.2499(1) 0.5338(1) 0.7190(1) 0. 1.
O1 O2- 2 i 0.0007(31) 0.0386(31) 0.2100(32) 0.0142(42) 1.
O2 O2- 2 i 0.5038(29) 0.5361(29) 0.2181(29) 0.0105(39) 1.
O3 O2- 2 i 0.0076(31) 0.4660(31) 0.2884(32) 0.0139(43) 1.
O4 O2- 2 i 0.4972(29) 0.9638(29) 0.2878(30) 0.0109(39) 1.
O5 O2- 2 i 0.2851(28) 0.2574(28) 0.2870(28) 0.0080(36) 1.
O6 O2- 2 i 0.2204(30) 0.763(3) 0.2232(30) 0.0113(40) 1.
O7 O2- 2 i 0.2186(29) 0.2627(29) 0.7258(30) 0.0105(39) 1.
O8 O2- 2 i 0.2840(28) 0.7583(28) 0.7679(28) 0.0083(36) 1.
O9 O2- 2 i 0.2943(29) 0.0422(29) 0.9998(29) 0.0100(38) 1.
O10 O2- 2 i 0.2971(31) 0.5446(31) 0.4982(32) 0.0139(43) 1.
O11 O2- 2 i 0.2096(30) 0.482(3) 0.9928(31) 0.0121(41) 1.
O12 O2- 2 i 0.2088(28) 0.9830(28) 0.5051(29) 0.0089(37) 1.
loop_
_atom_site_aniso_label
_atom_site_aniso_type_symbol
_atom_site_aniso_U_11
_atom_site_aniso_U_22
_atom_site_aniso_U_33
_atom_site_aniso_U_12
_atom_site_aniso_U_13
_atom_site_aniso_U_23
W1 W6+ 0.0066(5) 0.0040(6) 0.0047(7) 0.0012(3) -0.0008(3) -0.0006(3)
W2 W6+ 0.0060(5) 0.0040(6) 0.0055(7) 0.0010(3) -0.0004(3) -0.0008(3)
W3 W6+ 0.0060(5) 0.0049(6) 0.0052(7) 0.0011(3) 0.0000(3) 0.0000(3)
W4 W6+ 0.0063(5) 0.0054(6) 0.0036(7) 0.0008(3) -0.0006(3) -0.0004(3)
#End of data_1620-ICSD

###############################################################################
# Salje, E. (1977)
# Acta Crystallographica B (24,1968-38,1982) 33, 574-577
# Orthorhombic phase of W O3
# 
# CIF by ICSD-for-WWW,  Copyright 2003 FIZ-Karlsruhe & A.W.Hewat (hewat@ill.fr)
# NOT TO BE PUBLISHED IN ANY FORM. See http://icsd.ill.fr/icsd/conditions.html
###############################################################################

data_836-ICSD
_database_code_ICSD                836
_audit_creation_date               1980-01-01
_chemical_name_systematic
'Tungsten oxide'
_chemical_formula_structural       
'W O3'
_chemical_formula_sum              
'O3 W1'
_publ_section_title                
'O3 W1'
loop_
_citation_id
_citation_journal_abbrev
_citation_year
_citation_journal_volume
_citation_page_first
_citation_page_last
_citation_journal_id_ASTM
primary 'Acta Crystallographica B (24,1968-38,198' 1977 33 574 577 ACBCAR
loop_
_publ_author_name
Salje, E.
_cell_length_a                     7.341(4)
_cell_length_b                     7.570(4)
_cell_length_c                     7.754(4)
_cell_angle_alpha                  90.
_cell_angle_beta                   90.
_cell_angle_gamma                  90.
_cell_volume                       430.9004
_cell_formula_units_Z              8.000
_symmetry_space_group_name_H-M     'P m n b'
_symmetry_Int_Tables_number        62
_refine_ls_R_factor_all            0.0613
loop_
_symmetry_equiv_pos_site_id
_symmetry_equiv_pos_as_xyz
   1   'x, y+1/2, -z+1/2'
   2   '-x+1/2, y, z'
   3   'x+1/2, -y+1/2, z+1/2'
   4   '-x, -y, -z'
   5   '-x, -y+1/2, z+1/2'
   6   'x+1/2, -y, -z'
   7   '-x+1/2, y+1/2, -z+1/2'
   8   'x, y, z'
loop_
_atom_type_symbol
_atom_type_oxidation_number
W6+     6.
O2-     -2.
loop_
_atom_site_label
_atom_site_type_symbol
_atom_site_symmetry_multiplicity
_atom_site_Wyckoff_symbol
_atom_site_fract_x
_atom_site_fract_y
_atom_site_fract_z
_atom_site_B_iso_or_equiv
_atom_site_occupancy
W1 W6+ 4 c 0.25 0.029(1) 0.031(1) 0.58 1.
W2 W6+ 4 c 0.25 0.030(1) 0.532(1) 1.27 1.
O1 O2- 4 a 0 0 0 2. 0.5
O2 O2- 4 a 0.5 0 0 2. 0.5
O3 O2- 4 b 0 0 0.5 2. 0.5
O4 O2- 4 b 0.5 0.5 0 2. 0.5
O5 O2- 4 c 0.25 0.269(1) 0.027(1) 2. 1.
O6 O2- 4 c 0.25 0.278(1) 0.471(1) 2. 1.
O7 O2- 4 c 0.25 0.004(1) 0.262(1) 2. 1.
O8 O2- 4 c 0.25 0.015(1) 0.776(1) 2. 1.
#End of data_836-ICSD

###############################################################################
# Locherer, K.R.;Swainson, I.P.;Salje, E.K.H. (1999)
# Journal of Physics: Condensed Matter 11, 4143-4156
# Transition to a new tetragonal phase of W O3 : crystal structure and \
# distortion parameters
# 
# CIF by ICSD-for-WWW,  Copyright 2003 FIZ-Karlsruhe & A.W.Hewat (hewat@ill.fr)
# NOT TO BE PUBLISHED IN ANY FORM. See http://icsd.ill.fr/icsd/conditions.html
###############################################################################

data_88367-ICSD
_database_code_ICSD                88367
_audit_creation_date               2001-07-16
_chemical_name_systematic
'Tungsten oxide'
_chemical_formula_structural       
'W O3'
_chemical_formula_sum              
'O3 W1'
_publ_section_title                
'O3 W1'
loop_
_citation_id
_citation_journal_abbrev
_citation_year
_citation_journal_volume
_citation_page_first
_citation_page_last
_citation_journal_id_ASTM
primary 'Journal of Physics: Condensed Matter' 1999 11 4143 4156 JCOMEL
loop_
_publ_author_name
Locherer, K.R.;Swainson, I.P.;Salje, E.K.H.
_cell_length_a                     5.3031(4)
_cell_length_b                     5.3031(4)
_cell_length_c                     3.9348(3)
_cell_angle_alpha                  90.
_cell_angle_beta                   90.
_cell_angle_gamma                  90.
_cell_volume                       110.6606
_cell_formula_units_Z              2.000
_symmetry_space_group_name_H-M     'P 4/n m m'
_symmetry_Int_Tables_number        129
_refine_ls_R_factor_all            0.0334
loop_
_symmetry_equiv_pos_site_id
_symmetry_equiv_pos_as_xyz
   1   'y+1/2, x+1/2, -z'
   2   '-y, x+1/2, -z'
   3   'y+1/2, -x, -z'
   4   '-y, -x, -z'
   5   'x+1/2, y+1/2, -z'
   6   '-x, y+1/2, -z'
   7   'x+1/2, -y, -z'
   8   '-x, -y, -z'
   9   '-y+1/2, -x+1/2, z'
  10   'y, -x+1/2, z'
  11   '-y+1/2, x, z'
  12   'y, x, z'
  13   '-x+1/2, -y+1/2, z'
  14   'x, -y+1/2, z'
  15   '-x+1/2, y, z'
  16   'x, y, z'
loop_
_atom_type_symbol
_atom_type_oxidation_number
W6+     6.
O2-     -2.
loop_
_atom_site_label
_atom_site_type_symbol
_atom_site_symmetry_multiplicity
_atom_site_Wyckoff_symbol
_atom_site_fract_x
_atom_site_fract_y
_atom_site_fract_z
_atom_site_B_iso_or_equiv
_atom_site_occupancy
W1 W6+ 2 c 0.25 0.25 -.0664(8) 0. 1.
O1 O2- 2 c 0.25 0.25 0.4940(9) 0. 1.
O2 O2- 4 d 0 0 0 0. 1.
loop_
_atom_site_aniso_label
_atom_site_aniso_type_symbol
_atom_site_aniso_U_11
_atom_site_aniso_U_22
_atom_site_aniso_U_33
_atom_site_aniso_U_12
_atom_site_aniso_U_13
_atom_site_aniso_U_23
W1 W6+ 0.015(1) 0.015(1) 0.015(2) 0 0 0
O1 O2- 0.057(2) 0.057(2) 0.021(2) 0 0 0
O2 O2- 0.0340(9) 0.0340(9) 0.062(2) -.022(1) 0.001(1) 0.001(1)
#End of data_88367-ICSD

###############################################################################
# Locherer, K.R.;Swainson, I.P.;Salje, E.K.H. (1999)
# Journal of Physics: Condensed Matter 11, 4143-4156
# Transition to a new tetragonal phase of W O3 : crystal structure and \
# distortion parameters
# 
# CIF by ICSD-for-WWW,  Copyright 2003 FIZ-Karlsruhe & A.W.Hewat (hewat@ill.fr)
# NOT TO BE PUBLISHED IN ANY FORM. See http://icsd.ill.fr/icsd/conditions.html
###############################################################################

data_88366-ICSD
_database_code_ICSD                88366
_audit_creation_date               2001-07-16
_chemical_name_systematic
'Tungsten oxide'
_chemical_formula_structural       
'W O3'
_chemical_formula_sum              
'O3 W1'
_publ_section_title                
'O3 W1'
loop_
_citation_id
_citation_journal_abbrev
_citation_year
_citation_journal_volume
_citation_page_first
_citation_page_last
_citation_journal_id_ASTM
primary 'Journal of Physics: Condensed Matter' 1999 11 4143 4156 JCOMEL
loop_
_publ_author_name
Locherer, K.R.;Swainson, I.P.;Salje, E.K.H.
_cell_length_a                     5.2885(5)
_cell_length_b                     5.2885(5)
_cell_length_c                     7.8626(8)
_cell_angle_alpha                  90.
_cell_angle_beta                   90.
_cell_angle_gamma                  90.
_cell_volume                       219.9009
_cell_formula_units_Z              4.000
_symmetry_space_group_name_H-M     'P 4/n c c'
_symmetry_Int_Tables_number        130
_refine_ls_R_factor_all            0.0343
loop_
_symmetry_equiv_pos_site_id
_symmetry_equiv_pos_as_xyz
   1   'y+1/2, x+1/2, -z+1/2'
   2   '-y, x+1/2, -z'
   3   'y+1/2, -x, -z'
   4   '-y, -x, -z+1/2'
   5   'x+1/2, y+1/2, -z'
   6   '-x, y+1/2, -z+1/2'
   7   'x+1/2, -y, -z+1/2'
   8   '-x, -y, -z'
   9   '-y+1/2, -x+1/2, z+1/2'
  10   'y, -x+1/2, z'
  11   '-y+1/2, x, z'
  12   'y, x, z+1/2'
  13   '-x+1/2, -y+1/2, z'
  14   'x, -y+1/2, z+1/2'
  15   '-x+1/2, y, z+1/2'
  16   'x, y, z'
loop_
_atom_type_symbol
_atom_type_oxidation_number
W6+     6.
O2-     -2.
loop_
_atom_site_label
_atom_site_type_symbol
_atom_site_symmetry_multiplicity
_atom_site_Wyckoff_symbol
_atom_site_fract_x
_atom_site_fract_y
_atom_site_fract_z
_atom_site_B_iso_or_equiv
_atom_site_occupancy
W1 W6+ 4 c 0.25 0.25 0.2832(4) 0. 1.
O1 O2- 4 c 0.25 0.25 0.0030(5) 0. 1.
O2 O2- 8 f -.0249(1) 0.0249(1) 0.25 0. 1.
loop_
_atom_site_aniso_label
_atom_site_aniso_type_symbol
_atom_site_aniso_U_11
_atom_site_aniso_U_22
_atom_site_aniso_U_33
_atom_site_aniso_U_12
_atom_site_aniso_U_13
_atom_site_aniso_U_23
W1 W6+ 0.016(1) 0.016(1) 0.014(2) 0 0 0
O1 O2- 0.057(2) 0.057(2) 0.016(2) 0 0 0
O2 O2- 0.0249(9) 0.0249(9) 0.056(2) -.014(1) -.002(1) -.002(1)
#End of data_88366-ICSD

###############################################################################
# Vogt, T.;Woodward, P.M.;Hunter, B.A. (1999)
# Journal of Solid State Chemistry 144, 209-215
# The high-temperature phases of W O3
# 
# CIF by ICSD-for-WWW,  Copyright 2003 FIZ-Karlsruhe & A.W.Hewat (hewat@ill.fr)
# NOT TO BE PUBLISHED IN ANY FORM. See http://icsd.ill.fr/icsd/conditions.html
###############################################################################

data_50733-ICSD
_database_code_ICSD                50733
_audit_creation_date               2000-07-15
_chemical_name_systematic
'Tungsten oxide - alpha'
_chemical_formula_structural       
'W O3'
_chemical_formula_sum              
'O3 W1'
_publ_section_title                
'O3 W1'
loop_
_citation_id
_citation_journal_abbrev
_citation_year
_citation_journal_volume
_citation_page_first
_citation_page_last
_citation_journal_id_ASTM
primary 'Journal of Solid State Chemistry' 1999 144 209 215 JSSCBI
loop_
_publ_author_name
Vogt, T.;Woodward, P.M.;Hunter, B.A.
_cell_length_a                     5.2806(1)
_cell_length_b                     5.2806(1)
_cell_length_c                     7.8496(3)
_cell_angle_alpha                  90.
_cell_angle_beta                   90.
_cell_angle_gamma                  90.
_cell_volume                       218.8803
_cell_formula_units_Z              4.000
_symmetry_space_group_name_H-M     'P 4/n c c'
_symmetry_Int_Tables_number        130
_refine_ls_R_factor_all            0.0488
loop_
_symmetry_equiv_pos_site_id
_symmetry_equiv_pos_as_xyz
   1   'y+1/2, x+1/2, -z+1/2'
   2   '-y, x+1/2, -z'
   3   'y+1/2, -x, -z'
   4   '-y, -x, -z+1/2'
   5   'x+1/2, y+1/2, -z'
   6   '-x, y+1/2, -z+1/2'
   7   'x+1/2, -y, -z+1/2'
   8   '-x, -y, -z'
   9   '-y+1/2, -x+1/2, z+1/2'
  10   'y, -x+1/2, z'
  11   '-y+1/2, x, z'
  12   'y, x, z+1/2'
  13   '-x+1/2, -y+1/2, z'
  14   'x, -y+1/2, z+1/2'
  15   '-x+1/2, y, z+1/2'
  16   'x, y, z'
loop_
_atom_type_symbol
_atom_type_oxidation_number
W6+     6.
O2-     -2.
loop_
_atom_site_label
_atom_site_type_symbol
_atom_site_symmetry_multiplicity
_atom_site_Wyckoff_symbol
_atom_site_fract_x
_atom_site_fract_y
_atom_site_fract_z
_atom_site_B_iso_or_equiv
_atom_site_occupancy
W1 W6+ 4 c 0.25 0.25 0.2849(5) 0. 1.
O1 O2- 4 c 0.25 0.25 0.0025(5) 0. 1.
O2 O2- 8 f 0.0262(3) -.0262(3) 0.25 0. 1.
loop_
_atom_site_aniso_label
_atom_site_aniso_type_symbol
_atom_site_aniso_B_11
_atom_site_aniso_B_22
_atom_site_aniso_B_33
_atom_site_aniso_B_12
_atom_site_aniso_B_13
_atom_site_aniso_B_23
W1 W6+ 1.38(9) 1.38(9) 2.5(2) 0 0 0
O1 O2- 4.5(1) 4.5(1) 1.4(2) 0.0(2) 0 0
O2 O2- 1.94(6) 1.94(6) 6.0(2) -.93(8) -.2(1) -.2(1)
#End of data_50733-ICSD

###############################################################################
# Vogt, T.;Woodward, P.M.;Hunter, B.A. (1999)
# Journal of Solid State Chemistry 144, 209-215
# The high-temperature phases of W O3
# 
# CIF by ICSD-for-WWW,  Copyright 2003 FIZ-Karlsruhe & A.W.Hewat (hewat@ill.fr)
# NOT TO BE PUBLISHED IN ANY FORM. See http://icsd.ill.fr/icsd/conditions.html
###############################################################################

data_50732-ICSD
_database_code_ICSD                50732
_audit_creation_date               2000-07-15
_chemical_name_systematic
'Tungsten oxide - alpha'
_chemical_formula_structural       
'W O3'
_chemical_formula_sum              
'O3 W1'
_publ_section_title                
'O3 W1'
loop_
_citation_id
_citation_journal_abbrev
_citation_year
_citation_journal_volume
_citation_page_first
_citation_page_last
_citation_journal_id_ASTM
primary 'Journal of Solid State Chemistry' 1999 144 209 215 JSSCBI
loop_
_publ_author_name
Vogt, T.;Woodward, P.M.;Hunter, B.A.
_cell_length_a                     5.2759(1)
_cell_length_b                     5.2759(1)
_cell_length_c                     7.8462(3)
_cell_angle_alpha                  90.
_cell_angle_beta                   90.
_cell_angle_gamma                  90.
_cell_volume                       218.4005
_cell_formula_units_Z              4.000
_symmetry_space_group_name_H-M     'P 4/n c c'
_symmetry_Int_Tables_number        130
_refine_ls_R_factor_all            0.0505
loop_
_symmetry_equiv_pos_site_id
_symmetry_equiv_pos_as_xyz
   1   'y+1/2, x+1/2, -z+1/2'
   2   '-y, x+1/2, -z'
   3   'y+1/2, -x, -z'
   4   '-y, -x, -z+1/2'
   5   'x+1/2, y+1/2, -z'
   6   '-x, y+1/2, -z+1/2'
   7   'x+1/2, -y, -z+1/2'
   8   '-x, -y, -z'
   9   '-y+1/2, -x+1/2, z+1/2'
  10   'y, -x+1/2, z'
  11   '-y+1/2, x, z'
  12   'y, x, z+1/2'
  13   '-x+1/2, -y+1/2, z'
  14   'x, -y+1/2, z+1/2'
  15   '-x+1/2, y, z+1/2'
  16   'x, y, z'
loop_
_atom_type_symbol
_atom_type_oxidation_number
W6+     6.
O2-     -2.
loop_
_atom_site_label
_atom_site_type_symbol
_atom_site_symmetry_multiplicity
_atom_site_Wyckoff_symbol
_atom_site_fract_x
_atom_site_fract_y
_atom_site_fract_z
_atom_site_B_iso_or_equiv
_atom_site_occupancy
W1 W6+ 4 c 0.25 0.25 0.2847(4) 0. 1.
O1 O2- 4 c 0.25 0.25 0.0028(4) 0. 1.
O2 O2- 8 f 0.0287(2) -.0287(2) 0.25 0. 1.
loop_
_atom_site_aniso_label
_atom_site_aniso_type_symbol
_atom_site_aniso_B_11
_atom_site_aniso_B_22
_atom_site_aniso_B_33
_atom_site_aniso_B_12
_atom_site_aniso_B_13
_atom_site_aniso_B_23
W1 W6+ 1.37(8) 1.37(8) 2.0(8) 0 0 0
O1 O2- 4.3(1) 4.3(1) 1.3(1) 0.0(2) 0 0
O2 O2- 1.75(5) 1.75(5) 5.9(2) -.83(7) -.22(9) -.22(9)
#End of data_50732-ICSD

###############################################################################
# Vogt, T.;Woodward, P.M.;Hunter, B.A. (1999)
# Journal of Solid State Chemistry 144, 209-215
# The high-temperature phases of W O3
# 
# CIF by ICSD-for-WWW,  Copyright 2003 FIZ-Karlsruhe & A.W.Hewat (hewat@ill.fr)
# NOT TO BE PUBLISHED IN ANY FORM. See http://icsd.ill.fr/icsd/conditions.html
###############################################################################

data_50731-ICSD
_database_code_ICSD                50731
_audit_creation_date               2000-07-15
_chemical_name_systematic
'Tungsten oxide - beta'
_chemical_formula_structural       
'W O3'
_chemical_formula_sum              
'O3 W1'
_publ_section_title                
'O3 W1'
loop_
_citation_id
_citation_journal_abbrev
_citation_year
_citation_journal_volume
_citation_page_first
_citation_page_last
_citation_journal_id_ASTM
primary 'Journal of Solid State Chemistry' 1999 144 209 215 JSSCBI
loop_
_publ_author_name
Vogt, T.;Woodward, P.M.;Hunter, B.A.
_cell_length_a                     7.3903(2)
_cell_length_b                     7.5655(3)
_cell_length_c                     7.7875(3)
_cell_angle_alpha                  90.
_cell_angle_beta                   90.
_cell_angle_gamma                  90.
_cell_volume                       435.4103
_cell_formula_units_Z              8.000
_symmetry_space_group_name_H-M     'P c n b'
_symmetry_Int_Tables_number        60
_refine_ls_R_factor_all            0.0677
loop_
_symmetry_equiv_pos_site_id
_symmetry_equiv_pos_as_xyz
   1   'x, y+1/2, -z'
   2   '-x+1/2, y, z+1/2'
   3   'x+1/2, -y+1/2, z+1/2'
   4   '-x, -y, -z'
   5   '-x, -y+1/2, z'
   6   'x+1/2, -y, -z+1/2'
   7   '-x+1/2, y+1/2, -z+1/2'
   8   'x, y, z'
loop_
_atom_type_symbol
_atom_type_oxidation_number
W6+     6.
O2-     -2.
loop_
_atom_site_label
_atom_site_type_symbol
_atom_site_symmetry_multiplicity
_atom_site_Wyckoff_symbol
_atom_site_fract_x
_atom_site_fract_y
_atom_site_fract_z
_atom_site_B_iso_or_equiv
_atom_site_occupancy
W1 W6+ 8 d 0.2502(8) 0.0265(7) 0.2839(4) 0. 1.
O1 O2- 8 d 0.000(1) 0.0280(5) 0.2293(8) 0. 1.
O2 O2- 8 d 0.2782(5) 0.2615(7) 0.258(1) 0. 1.
O3 O2- 8 d 0.2694(8) 0.0086(9) 0.0039(6) 0. 1.
loop_
_atom_site_aniso_label
_atom_site_aniso_type_symbol
_atom_site_aniso_B_11
_atom_site_aniso_B_22
_atom_site_aniso_B_33
_atom_site_aniso_B_12
_atom_site_aniso_B_13
_atom_site_aniso_B_23
W1 W6+ 0.99(8) 0.99(8) 0.99(8) 0.99(8) 0.99(8) 0.99(8)
O1 O2- 0.5(1) 1.9(1) 3.5(2) 0.4(2) -.8(2) 0.2(2)
O2 O2- 2.1(2) 0.6(1) 4.5(2) 0.2(2) -.5(2) -.1(2)
O3 O2- 2.6(2) 3.7(2) 1.6(2) -1.1(5) 0.4(3) 0.3(2)
#End of data_50731-ICSD

###############################################################################
# Vogt, T.;Woodward, P.M.;Hunter, B.A. (1999)
# Journal of Solid State Chemistry 144, 209-215
# The high-temperature phases of W O3
# 
# CIF by ICSD-for-WWW,  Copyright 2003 FIZ-Karlsruhe & A.W.Hewat (hewat@ill.fr)
# NOT TO BE PUBLISHED IN ANY FORM. See http://icsd.ill.fr/icsd/conditions.html
###############################################################################

data_50730-ICSD
_database_code_ICSD                50730
_audit_creation_date               2000-07-15
_chemical_name_systematic
'Tungsten oxide - beta'
_chemical_formula_structural       
'W O3'
_chemical_formula_sum              
'O3 W1'
_publ_section_title                
'O3 W1'
loop_
_citation_id
_citation_journal_abbrev
_citation_year
_citation_journal_volume
_citation_page_first
_citation_page_last
_citation_journal_id_ASTM
primary 'Journal of Solid State Chemistry' 1999 144 209 215 JSSCBI
loop_
_publ_author_name
Vogt, T.;Woodward, P.M.;Hunter, B.A.
_cell_length_a                     7.3612(2)
_cell_length_b                     7.5739(2)
_cell_length_c                     7.7620(3)
_cell_angle_alpha                  90.
_cell_angle_beta                   90.
_cell_angle_gamma                  90.
_cell_volume                       432.7509
_cell_formula_units_Z              8.000
_symmetry_space_group_name_H-M     'P c n b'
_symmetry_Int_Tables_number        60
_refine_ls_R_factor_all            0.0677
loop_
_symmetry_equiv_pos_site_id
_symmetry_equiv_pos_as_xyz
   1   'x, y+1/2, -z'
   2   '-x+1/2, y, z+1/2'
   3   'x+1/2, -y+1/2, z+1/2'
   4   '-x, -y, -z'
   5   '-x, -y+1/2, z'
   6   'x+1/2, -y, -z+1/2'
   7   '-x+1/2, y+1/2, -z+1/2'
   8   'x, y, z'
loop_
_atom_type_symbol
_atom_type_oxidation_number
W6+     6.
O2-     -2.
loop_
_atom_site_label
_atom_site_type_symbol
_atom_site_symmetry_multiplicity
_atom_site_Wyckoff_symbol
_atom_site_fract_x
_atom_site_fract_y
_atom_site_fract_z
_atom_site_B_iso_or_equiv
_atom_site_occupancy
W1 W6+ 8 d 0.2523(6) 0.0294(5) 0.2834(4) 0. 1.
O1 O2- 8 d 0.0017(9) 0.0300(4) 0.2231(5) 0. 1.
O2 O2- 8 d 0.2816(4) 0.2607(5) 0.2579(7) 0. 1.
O3 O2- 8 d 0.2768(5) 0.0128(7) 0.0027(5) 0. 1.
loop_
_atom_site_aniso_label
_atom_site_aniso_type_symbol
_atom_site_aniso_B_11
_atom_site_aniso_B_22
_atom_site_aniso_B_33
_atom_site_aniso_B_12
_atom_site_aniso_B_13
_atom_site_aniso_B_23
W1 W6+ 0.81(6) 0.81(6) 0.81(6) 0.81(6) 0.81(6) 0.81(6)
O1 O2- 0.47(9) 1.5(1) 2.9(2) 0.3(2) -.5(2) 0.3(2)
O2 O2- 2.0(2) 0.4(1) 4.2(2) 0.2(2) -.3(2) 0.5(2)
O3 O2- 2.0(2) 2.9(2) 1.4(1) 0.0(2) -.3(2) 0.1(1)
#End of data_50730-ICSD

###############################################################################
# Vogt, T.;Woodward, P.M.;Hunter, B.A. (1999)
# Journal of Solid State Chemistry 144, 209-215
# The high-temperature phases of W O3
# 
# CIF by ICSD-for-WWW,  Copyright 2003 FIZ-Karlsruhe & A.W.Hewat (hewat@ill.fr)
# NOT TO BE PUBLISHED IN ANY FORM. See http://icsd.ill.fr/icsd/conditions.html
###############################################################################

data_50729-ICSD
_database_code_ICSD                50729
_audit_creation_date               2000-07-15
_chemical_name_systematic
'Tungsten oxide - beta'
_chemical_formula_structural       
'W O3'
_chemical_formula_sum              
'O3 W1'
_publ_section_title                
'O3 W1'
loop_
_citation_id
_citation_journal_abbrev
_citation_year
_citation_journal_volume
_citation_page_first
_citation_page_last
_citation_journal_id_ASTM
primary 'Journal of Solid State Chemistry' 1999 144 209 215 JSSCBI
loop_
_publ_author_name
Vogt, T.;Woodward, P.M.;Hunter, B.A.
_cell_length_a                     7.3397(2)
_cell_length_b                     7.5744(2)
_cell_length_c                     7.7452(3)
_cell_angle_alpha                  90.
_cell_angle_beta                   90.
_cell_angle_gamma                  90.
_cell_volume                       430.5909
_cell_formula_units_Z              8.000
_symmetry_space_group_name_H-M     'P c n b'
_symmetry_Int_Tables_number        60
_refine_ls_R_factor_all            0.0668
loop_
_symmetry_equiv_pos_site_id
_symmetry_equiv_pos_as_xyz
   1   'x, y+1/2, -z'
   2   '-x+1/2, y, z+1/2'
   3   'x+1/2, -y+1/2, z+1/2'
   4   '-x, -y, -z'
   5   '-x, -y+1/2, z'
   6   'x+1/2, -y, -z+1/2'
   7   '-x+1/2, y+1/2, -z+1/2'
   8   'x, y, z'
loop_
_atom_type_symbol
_atom_type_oxidation_number
W6+     6.
O2-     -2.
loop_
_atom_site_label
_atom_site_type_symbol
_atom_site_symmetry_multiplicity
_atom_site_Wyckoff_symbol
_atom_site_fract_x
_atom_site_fract_y
_atom_site_fract_z
_atom_site_B_iso_or_equiv
_atom_site_occupancy
W1 W6+ 8 d 0.2520(5) 0.0291(5) 0.2830(4) 0. 1.
O1 O2- 8 d -.0016(8) 0.0322(4) 0.2205(5) 0. 1.
O2 O2- 8 d 0.2833(4) 0.2582(5) 0.2591(6) 0. 1.
O3 O2- 8 d 0.2803(4) 0.0130(7) 0.0016(5) 0. 1.
loop_
_atom_site_aniso_label
_atom_site_aniso_type_symbol
_atom_site_aniso_B_11
_atom_site_aniso_B_22
_atom_site_aniso_B_33
_atom_site_aniso_B_12
_atom_site_aniso_B_13
_atom_site_aniso_B_23
W1 W6+ 0.73(6) 0.73(6) 0.73(6) 0.73(6) 0.73(6) 0.73(6)
O1 O2- 0.47(9) 1.3(1) 2.7(2) 0.2(2) -.8(2) 0.2(1)
O2 O2- 1.6(1) 0.6(1) 3.4(2) 0.1(2) -.2(1) 0.7(2)
O3 O2- 1.4(1) 2.6(2) 1.5(2) -.1(2) -.1(2) 0.1(1)
#End of data_50729-ICSD

###############################################################################
# Vogt, T.;Woodward, P.M.;Hunter, B.A. (1999)
# Journal of Solid State Chemistry 144, 209-215
# The high-temperature phases of W O3
# 
# CIF by ICSD-for-WWW,  Copyright 2003 FIZ-Karlsruhe & A.W.Hewat (hewat@ill.fr)
# NOT TO BE PUBLISHED IN ANY FORM. See http://icsd.ill.fr/icsd/conditions.html
###############################################################################

data_50728-ICSD
_database_code_ICSD                50728
_audit_creation_date               2000-07-15
_chemical_name_systematic
'Tungsten oxide - beta'
_chemical_formula_structural       
'W O3'
_chemical_formula_sum              
'O3 W1'
_publ_section_title                
'O3 W1'
loop_
_citation_id
_citation_journal_abbrev
_citation_year
_citation_journal_volume
_citation_page_first
_citation_page_last
_citation_journal_id_ASTM
primary 'Journal of Solid State Chemistry' 1999 144 209 215 JSSCBI
loop_
_publ_author_name
Vogt, T.;Woodward, P.M.;Hunter, B.A.
_cell_length_a                     7.3331(2)
_cell_length_b                     7.5733(2)
_cell_length_c                     7.7401(3)
_cell_angle_alpha                  90.
_cell_angle_beta                   90.
_cell_angle_gamma                  90.
_cell_volume                       429.8502
_cell_formula_units_Z              8.000
_symmetry_space_group_name_H-M     'P c n b'
_symmetry_Int_Tables_number        60
_refine_ls_R_factor_all            0.0659
loop_
_symmetry_equiv_pos_site_id
_symmetry_equiv_pos_as_xyz
   1   'x, y+1/2, -z'
   2   '-x+1/2, y, z+1/2'
   3   'x+1/2, -y+1/2, z+1/2'
   4   '-x, -y, -z'
   5   '-x, -y+1/2, z'
   6   'x+1/2, -y, -z+1/2'
   7   '-x+1/2, y+1/2, -z+1/2'
   8   'x, y, z'
loop_
_atom_type_symbol
_atom_type_oxidation_number
W6+     6.
O2-     -2.
loop_
_atom_site_label
_atom_site_type_symbol
_atom_site_symmetry_multiplicity
_atom_site_Wyckoff_symbol
_atom_site_fract_x
_atom_site_fract_y
_atom_site_fract_z
_atom_site_B_iso_or_equiv
_atom_site_occupancy
W1 W6+ 8 d 0.2521(6) 0.0291(6) 0.2830(5) 0. 1.
O1 O2- 8 d -.0016(9) 0.0322(4) 0.2205(5) 0. 1.
O2 O2- 8 d 0.2833(5) 0.2693(6) 0.2592(7) 0. 1.
O3 O2- 8 d 0.2803(5) 0.0130(7) 0.0017(6) 0. 1.
loop_
_atom_site_aniso_label
_atom_site_aniso_type_symbol
_atom_site_aniso_B_11
_atom_site_aniso_B_22
_atom_site_aniso_B_33
_atom_site_aniso_B_12
_atom_site_aniso_B_13
_atom_site_aniso_B_23
W1 W6+ 0.72(6) 0.72(6) 0.72(6) 0.72(6) 0.72(6) 0.72(6)
O1 O2- 0.5(1) 1.3(1) 2.7(2) 0.2(2) -.8(2) 0.2(1)
O2 O2- 1.6(1) 0.6(1) 3.3(2) 0.1(2) -.2(2) 0.7(2)
O3 O2- 1.4(1) 2.6(2) 1.5(2) -.1(2) -.1(2) 0.1(1)
#End of data_50728-ICSD

###############################################################################
# Vogt, T.;Woodward, P.M.;Hunter, B.A. (1999)
# Journal of Solid State Chemistry 144, 209-215
# The high-temperature phases of W O3
# 
# CIF by ICSD-for-WWW,  Copyright 2003 FIZ-Karlsruhe & A.W.Hewat (hewat@ill.fr)
# NOT TO BE PUBLISHED IN ANY FORM. See http://icsd.ill.fr/icsd/conditions.html
###############################################################################

data_50727-ICSD
_database_code_ICSD                50727
_audit_creation_date               2000-07-15
_chemical_name_systematic
'Tungsten oxide'
_chemical_formula_structural       
'W O3'
_chemical_formula_sum              
'O3 W1'
_publ_section_title                
'O3 W1'
loop_
_citation_id
_citation_journal_abbrev
_citation_year
_citation_journal_volume
_citation_page_first
_citation_page_last
_citation_journal_id_ASTM
primary 'Journal of Solid State Chemistry' 1999 144 209 215 JSSCBI
loop_
_publ_author_name
Vogt, T.;Woodward, P.M.;Hunter, B.A.
_cell_length_a                     7.3271(2)
_cell_length_b                     7.5644(2)
_cell_length_c                     7.7274(3)
_cell_angle_alpha                  90.
_cell_angle_beta                   90.488(3)
_cell_angle_gamma                  90.
_cell_volume                       428.2806
_cell_formula_units_Z              8.000
_symmetry_space_group_name_H-M     'P 1 21/n 1'
_symmetry_Int_Tables_number        14
_refine_ls_R_factor_all            0.0695
loop_
_symmetry_equiv_pos_site_id
_symmetry_equiv_pos_as_xyz
   1   '-x+1/2, y+1/2, -z+1/2'
   2   '-x, -y, -z'
   3   'x+1/2, -y+1/2, z+1/2'
   4   'x, y, z'
loop_
_atom_type_symbol
_atom_type_oxidation_number
W6+     6.
O2-     -2.
loop_
_atom_site_label
_atom_site_type_symbol
_atom_site_symmetry_multiplicity
_atom_site_Wyckoff_symbol
_atom_site_fract_x
_atom_site_fract_y
_atom_site_fract_z
_atom_site_B_iso_or_equiv
_atom_site_occupancy
W1 W6+ 4 e 0.253(1) 0.026(1) 0.283(1) 0. 1.
W2 W6+ 4 e 0.246(1) 0.033(1) 0.7811(9) 0. 1.
O1 O2- 4 e 0.000(1) 0.030(1) 0.218(1) 0. 1.
O2 O2- 4 e 0.002(1) 0.464(1) 0.221(1) 0. 1.
O3 O2- 4 e 0.282(1) 0.264(2) 0.277(1) 0. 1.
O4 O2- 4 e 0.2140(9) 0.257(1) 0.742(1) 0. 1.
O5 O2- 4 e 0.277(1) 0.028(1) 0.0002(9) 0. 1.
O6 O2- 4 e 0.288(1) 0.498(1) 0.000(1) 0. 1.
loop_
_atom_site_aniso_label
_atom_site_aniso_type_symbol
_atom_site_aniso_B_11
_atom_site_aniso_B_22
_atom_site_aniso_B_33
_atom_site_aniso_B_12
_atom_site_aniso_B_13
_atom_site_aniso_B_23
W1 W6+ 1.0(1) 1.0(1) 1.0(1) 1.0(1) 1.0(1) 1.
W2 W6+ 0.9(1) 0.8(1) 0.8(1) 0.8(1) 0.8(1) 0.8(1)
O1 O2- 0.7(3) 1.5(4) 3.0(5) 0.8(3) -.4(3) 0.5(3)
O2 O2- 1.8(4) 1.0(4) 2.3(5) 0.2(3) 1.0(3) 0.1(3)
O3 O2- 2.0(3) 2.5(4) 2.6(4) -.3(4) 0.8(3) 1.9(4)
O4 O2- 2.1(3) 0.1(3) 3.5(4) -.1(3) 0.4(3) -.1(3)
O5 O2- 1.6(3) 2.5(3) 1.0(3) 0.9(3) -.6(2) 0.3(3)
O6 O2- 1.6(2) 2.0(4) 3.6(4) 0.1(2) 1.0(3) 0.8(3)
#End of data_50727-ICSD

###############################################################################
# Aird, A.;Domeneghetti, M.C.;Mazzi, F.;Tazzoli, V.;Salje, E.K.H. (1998)
# Journal of Physics: Condensed Matter 10, 569-574
# Sheet superconductivity in W O3-x : crystal structure of the tetragonal \
# matrix
# 
# CIF by ICSD-for-WWW,  Copyright 2003 FIZ-Karlsruhe & A.W.Hewat (hewat@ill.fr)
# NOT TO BE PUBLISHED IN ANY FORM. See http://icsd.ill.fr/icsd/conditions.html
###############################################################################

data_86144-ICSD
_database_code_ICSD                86144
_audit_creation_date               1999-11-30
_chemical_name_systematic
'Tungsten oxide'
_chemical_formula_structural       
'W O3'
_chemical_formula_sum              
'O3 W1'
_publ_section_title                
'O3 W1'
loop_
_citation_id
_citation_journal_abbrev
_citation_year
_citation_journal_volume
_citation_page_first
_citation_page_last
_citation_journal_id_ASTM
primary 'Journal of Physics: Condensed Matter' 1998 10 569 574 JCOMEL
loop_
_publ_author_name
Aird, A.;Domeneghetti, M.C.;Mazzi, F.;Tazzoli, V.;Salje, E.K.H.
_cell_length_a                     7.39(2)
_cell_length_b                     7.39(2)
_cell_length_c                     3.88(1)
_cell_angle_alpha                  90.
_cell_angle_beta                   90.
_cell_angle_gamma                  90.
_cell_volume                       211.8909
_cell_formula_units_Z              4.000
_symmetry_space_group_name_H-M     'P -4 21 m'
_symmetry_Int_Tables_number        113
_refine_ls_R_factor_all            0.0389
loop_
_symmetry_equiv_pos_site_id
_symmetry_equiv_pos_as_xyz
   1   '-y+1/2, -x+1/2, z'
   2   'y, -x, -z'
   3   'y+1/2, x+1/2, z'
   4   '-y, x, -z'
   5   'x+1/2, -y+1/2, -z'
   6   '-x, -y, z'
   7   '-x+1/2, y+1/2, -z'
   8   'x, y, z'
loop_
_atom_type_symbol
_atom_type_oxidation_number
W6+     6.
O2-     -2.
loop_
_atom_site_label
_atom_site_type_symbol
_atom_site_symmetry_multiplicity
_atom_site_Wyckoff_symbol
_atom_site_fract_x
_atom_site_fract_y
_atom_site_fract_z
_atom_site_B_iso_or_equiv
_atom_site_occupancy
W1 W6+ 4 e 0.2569(1) 0.7569(1) -.0698(2) 0. 1.
O1 O2- 4 e 0.2633(40) 0.7633(40) 0.493(5) 0. 1.
O2 O2- 8 f 0.0021(22) 0.7915(22) 0.0241(47) 0. 1.
loop_
_atom_site_aniso_label
_atom_site_aniso_type_symbol
_atom_site_aniso_U_11
_atom_site_aniso_U_22
_atom_site_aniso_U_33
_atom_site_aniso_U_12
_atom_site_aniso_U_13
_atom_site_aniso_U_23
W1 W6+ 0.0209(3) 0.0209(3) 0.0129(4) 0.0001(8) 0.0004(3) 0.0004(3)
O1 O2- 0.097(14) 0.097(14) 0.0150(64) 0.038(34) 0.0052(94) 0.0052(94)
O2 O2- 0.0304(68) 0.045(14) 0.0497(74) 0.0045(70) -.0018(80) 0.009(10)
#End of data_86144-ICSD

###############################################################################
# Xu, Y.;Carlson, S.;Norrestam, R. (1997)
# Journal of Solid State Chemistry 132, 123-130
# Single crystal diffraction studies of W O3 at high pressures and the \
# structure of a high-pressure W O3 phase
# 
# CIF by ICSD-for-WWW,  Copyright 2003 FIZ-Karlsruhe & A.W.Hewat (hewat@ill.fr)
# NOT TO BE PUBLISHED IN ANY FORM. See http://icsd.ill.fr/icsd/conditions.html
###############################################################################

data_84848-ICSD
_database_code_ICSD                84848
_audit_creation_date               1999-01-19
_chemical_name_systematic
'Tungsten oxide - HP'
_chemical_formula_structural       
'W O3'
_chemical_formula_sum              
'O3 W1'
_publ_section_title                
'O3 W1'
loop_
_citation_id
_citation_journal_abbrev
_citation_year
_citation_journal_volume
_citation_page_first
_citation_page_last
_citation_journal_id_ASTM
primary 'Journal of Solid State Chemistry' 1997 132 123 130 JSSCBI
loop_
_publ_author_name
Xu, Y.;Carlson, S.;Norrestam, R.
_cell_length_a                     5.261(2)
_cell_length_b                     5.128(1)
_cell_length_c                     7.650(4)
_cell_angle_alpha                  90.
_cell_angle_beta                   92.05(3)
_cell_angle_gamma                  90.
_cell_volume                       206.2505
_cell_formula_units_Z              4.000
_symmetry_space_group_name_H-M     'P 1 21/c 1'
_symmetry_Int_Tables_number        14
_refine_ls_R_factor_all            0.0406
loop_
_symmetry_equiv_pos_site_id
_symmetry_equiv_pos_as_xyz
   1   'x, -y+1/2, z+1/2'
   2   '-x, -y, -z'
   3   '-x, y+1/2, -z+1/2'
   4   'x, y, z'
loop_
_atom_type_symbol
_atom_type_oxidation_number
W6+     6.
O2-     -2.
loop_
_atom_site_label
_atom_site_type_symbol
_atom_site_symmetry_multiplicity
_atom_site_Wyckoff_symbol
_atom_site_fract_x
_atom_site_fract_y
_atom_site_fract_z
_atom_site_B_iso_or_equiv
_atom_site_occupancy
W1 W6+ 4 e 0.2563(1) 0.2681(1) 0.2882(2) 0. 1.
O1 O2- 4 e -.042(2) 0.039(2) 0.202(2) 0.008(2) 1.
O2 O2- 4 e 0.442(2) -.046(2) 0.199(2) 0.017(3) 1.
O3 O2- 4 e 0.255(3) 0.327(2) 0.012(3) 0.016(2) 1.
loop_
_atom_site_aniso_label
_atom_site_aniso_type_symbol
_atom_site_aniso_U_11
_atom_site_aniso_U_22
_atom_site_aniso_U_33
_atom_site_aniso_U_12
_atom_site_aniso_U_13
_atom_site_aniso_U_23
W1 W6+ 0.0052(11) 0.0077(6) 0.0056(24) -.0004(2) -.0016(13) -.0001(2)
#End of data_84848-ICSD

###############################################################################
# Woodward, P.M.;Sleight, A.W.;Vogt, T. (1997)
# Journal of Solid State Chemistry 131, 9-17
# Ferroelectric tungsten trioxide
# 
# CIF by ICSD-for-WWW,  Copyright 2003 FIZ-Karlsruhe & A.W.Hewat (hewat@ill.fr)
# NOT TO BE PUBLISHED IN ANY FORM. See http://icsd.ill.fr/icsd/conditions.html
###############################################################################

data_84843-ICSD
_database_code_ICSD                84843
_audit_creation_date               1999-01-19
_chemical_name_systematic
'Tungsten oxide - epsilon'
_chemical_formula_structural       
'W O3'
_chemical_formula_sum              
'O3 W1'
_publ_section_title                
'O3 W1'
loop_
_citation_id
_citation_journal_abbrev
_citation_year
_citation_journal_volume
_citation_page_first
_citation_page_last
_citation_journal_id_ASTM
primary 'Journal of Solid State Chemistry' 1997 131 9 17 JSSCBI
loop_
_publ_author_name
Woodward, P.M.;Sleight, A.W.;Vogt, T.
_cell_length_a                     5.27793(3)
_cell_length_b                     5.15594(3)
_cell_length_c                     7.66392(4)
_cell_angle_alpha                  90.
_cell_angle_beta                   91.762
_cell_angle_gamma                  90.
_cell_volume                       208.461
_cell_formula_units_Z              4.000
_symmetry_space_group_name_H-M     'P 1 c 1'
_symmetry_Int_Tables_number        7
_refine_ls_R_factor_all            0.0433
loop_
_symmetry_equiv_pos_site_id
_symmetry_equiv_pos_as_xyz
   1   'x, -y, z+1/2'
   2   'x, y, z'
loop_
_atom_type_symbol
_atom_type_oxidation_number
W6+     6.
O2-     -2.
loop_
_atom_site_label
_atom_site_type_symbol
_atom_site_symmetry_multiplicity
_atom_site_Wyckoff_symbol
_atom_site_fract_x
_atom_site_fract_y
_atom_site_fract_z
_atom_site_B_iso_or_equiv
_atom_site_occupancy
W1 W6+ 2 a -.004(2) -.014(1) -.0218(2) -0.0012(4) 1.
W2 W6+ 2 a 0.508(2) 0.472(1) 0.0550(2) -0.0012(4) 1.
O1 O2- 2 a 0.213(1) 0.708(1) -.013(1) 0.0005(2) 1.
O2 O2- 2 a 0.285(1) 0.215(1) 0.063(1) 0.0005(2) 1.
O3 O2- 2 a 0.7086(7) 0.791(1) -.023(1) 0.0005(2) 1.
O4 O2- 2 a 0.795 0.290(1) 0.057(1) 0.0005(2) 1.
O5 O2- 2 a -.004(2) 0.0717(9) 0.764(1) 0.0005(2) 1.
O6 O2- 2 a 0.501(2) 0.4201(9) 0.778(1) 0.0005(2) 1.
#End of data_84843-ICSD

###############################################################################
# Salje, E.K.H.;Rehmann, S.;Pobell, F.;Morris, D.;Knight, K.S.;\
# Herrmannsdoerfer, T.;Dove, M.T. (1997)
# Journal of Physics: Condensed Matter 9, 6563-6577
# Crystal structure and paramagnetic behaviour of epsilon-(W O3-x)
# 
# CIF by ICSD-for-WWW,  Copyright 2003 FIZ-Karlsruhe & A.W.Hewat (hewat@ill.fr)
# NOT TO BE PUBLISHED IN ANY FORM. See http://icsd.ill.fr/icsd/conditions.html
###############################################################################

data_84139-ICSD
_database_code_ICSD                84139
_audit_creation_date               1999-01-19
_chemical_name_systematic
'Tungsten oxide - epsilon'
_chemical_formula_structural       
'W O3'
_chemical_formula_sum              
'O3 W1'
_publ_section_title                
'O3 W1'
loop_
_citation_id
_citation_journal_abbrev
_citation_year
_citation_journal_volume
_citation_page_first
_citation_page_last
_citation_journal_id_ASTM
primary 'Journal of Physics: Condensed Matter' 1997 9 6563 6577 JCOMEL
loop_
_publ_author_name
Salje, E.K.H.;Rehmann, S.;Pobell, F.;Morris, D.;Knight, K.S.;\
Herrmannsdoerfer, T.;Dove, M.T.
_cell_length_a                     5.27710(1)
_cell_length_b                     5.15541(1)
_cell_length_c                     7.66297(1)
_cell_angle_alpha                  90.
_cell_angle_beta                   91.7590(2)
_cell_angle_gamma                  90.
_cell_volume                       208.3809
_cell_formula_units_Z              4.000
_symmetry_space_group_name_H-M     'P 1 c 1'
_symmetry_Int_Tables_number        7
_refine_ls_R_factor_all            0.0901
loop_
_symmetry_equiv_pos_site_id
_symmetry_equiv_pos_as_xyz
   1   'x, -y, z+1/2'
   2   'x, y, z'
loop_
_atom_type_symbol
_atom_type_oxidation_number
W6+     6.
O2-     -2.
loop_
_atom_site_label
_atom_site_type_symbol
_atom_site_symmetry_multiplicity
_atom_site_Wyckoff_symbol
_atom_site_fract_x
_atom_site_fract_y
_atom_site_fract_z
_atom_site_B_iso_or_equiv
_atom_site_occupancy
W1 W6+ 2 a -.0099(5) -.020(1) 0.6743(2) -.06(3) 1.
W2 W6+ 2 a 0.5 0.479(1) 0.75 -.06(3) 1.
O1 O2- 2 a 0.492(2) 0.578(1) -.023(1) 0.18(2) 1.
O2 O2- 2 a 0.213(2) 0.289(1) 0.183(1) 0.18(2) 1.
O3 O2- 2 a 0.283(2) 0.786(1) 0.259(1) 0.18(2) 1.
O4 O2- 2 a 0.705(2) 0.207(1) 0.182(1) 0.18(2) 1.
O5 O2- 2 a 0.796(2) 0.711(1) 0.261(1) 0.18(2) 1.
O6 O2- 2 a -.012(2) 0.073(1) 0.463(1) 0.18(2) 1.
#End of data_84139-ICSD

###############################################################################
# Bolzan, A.A.;Kennedy, B.J.;Howard, C.J. (1995)
# Australian Journal of Chemistry 48, 1473-1477
# Neutron powder diffraction study of molybdenum and tungsten dioxides
# 
# CIF by ICSD-for-WWW,  Copyright 2003 FIZ-Karlsruhe & A.W.Hewat (hewat@ill.fr)
# NOT TO BE PUBLISHED IN ANY FORM. See http://icsd.ill.fr/icsd/conditions.html
###############################################################################

data_80829-ICSD
_database_code_ICSD                80829
_audit_creation_date               1997-05-13
_chemical_name_systematic
'Tungsten(IV) oxide'
_chemical_formula_structural       
'W O2'
_chemical_formula_sum              
'O2 W1'
_publ_section_title                
'O2 W1'
loop_
_citation_id
_citation_journal_abbrev
_citation_year
_citation_journal_volume
_citation_page_first
_citation_page_last
_citation_journal_id_ASTM
primary 'Australian Journal of Chemistry' 1995 48 1473 1477 AJCHAS
loop_
_publ_author_name
Bolzan, A.A.;Kennedy, B.J.;Howard, C.J.
_cell_length_a                     5.5769(2)
_cell_length_b                     4.8986(1)
_cell_length_c                     5.6644(2)
_cell_angle_alpha                  90.
_cell_angle_beta                   120.678(1)
_cell_angle_gamma                  90.
_cell_volume                       133.0904
_cell_formula_units_Z              4.000
_symmetry_space_group_name_H-M     'P 1 21/c 1'
_symmetry_Int_Tables_number        14
_refine_ls_R_factor_all            0.02
loop_
_symmetry_equiv_pos_site_id
_symmetry_equiv_pos_as_xyz
   1   'x, -y+1/2, z+1/2'
   2   '-x, -y, -z'
   3   '-x, y+1/2, -z+1/2'
   4   'x, y, z'
loop_
_atom_type_symbol
_atom_type_oxidation_number
W4+     4.
O2-     -2.
loop_
_atom_site_label
_atom_site_type_symbol
_atom_site_symmetry_multiplicity
_atom_site_Wyckoff_symbol
_atom_site_fract_x
_atom_site_fract_y
_atom_site_fract_z
_atom_site_B_iso_or_equiv
_atom_site_occupancy
W1 W4+ 4 e 0.2309(5) -.0088(6) 0.0147(5) 0.22(3) 1.
O1 O2- 4 e 0.1138(4) 0.2212(4) 0.2345(3) 0.35(3) 1.
O2 O2- 4 e 0.3901(4) 0.6981(4) 0.2985(3) 0.35(3) 1.
#End of data_80829-ICSD

###############################################################################
# Oi, J.;Kishimoto, A.;Kudo, T.;Hiratani, M. (1992)
# Journal of Solid State Chemistry 96, 13-19
# Hexagonal tungsten trioxide obtained from peroxo-polytungstate and \
# reversible lithium electro-intercalation into its framework
# 
# CIF by ICSD-for-WWW,  Copyright 2003 FIZ-Karlsruhe & A.W.Hewat (hewat@ill.fr)
# NOT TO BE PUBLISHED IN ANY FORM. See http://icsd.ill.fr/icsd/conditions.html
###############################################################################

data_80635-ICSD
_database_code_ICSD                80635
_audit_creation_date               1997-05-13
_chemical_name_systematic
'Tungsten oxide - h'
_chemical_formula_structural       
'W O3'
_chemical_formula_sum              
'O3 W1'
_publ_section_title                
'O3 W1'
loop_
_citation_id
_citation_journal_abbrev
_citation_year
_citation_journal_volume
_citation_page_first
_citation_page_last
_citation_journal_id_ASTM
primary 'Journal of Solid State Chemistry' 1992 96 13 19 JSSCBI
loop_
_publ_author_name
Oi, J.;Kishimoto, A.;Kudo, T.;Hiratani, M.
_cell_length_a                     7.3242(6)
_cell_length_b                     7.3242(6)
_cell_length_c                     7.6624(5)
_cell_angle_alpha                  90.
_cell_angle_beta                   90.
_cell_angle_gamma                  120.
_cell_volume                       355.9701
_cell_formula_units_Z              6.000
_symmetry_space_group_name_H-M     'P 63/m c m'
_symmetry_Int_Tables_number        193
_refine_ls_R_factor_all            0.0686
loop_
_symmetry_equiv_pos_site_id
_symmetry_equiv_pos_as_xyz
   1   '-x, -x+y, -z+1/2'
   2   'x-y, -y, -z+1/2'
   3   'y, x, -z+1/2'
   4   '-x+y, -x, -z+1/2'
   5   '-y, x-y, -z+1/2'
   6   'x, y, -z+1/2'
   7   'x, x-y, z+1/2'
   8   '-x+y, y, z+1/2'
   9   '-y, -x, z+1/2'
  10   'x-y, x, z+1/2'
  11   'y, -x+y, z+1/2'
  12   '-x, -y, z+1/2'
  13   'x, x-y, -z'
  14   '-x+y, y, -z'
  15   '-y, -x, -z'
  16   'x-y, x, -z'
  17   'y, -x+y, -z'
  18   '-x, -y, -z'
  19   '-x, -x+y, z'
  20   'x-y, -y, z'
  21   'y, x, z'
  22   '-x+y, -x, z'
  23   '-y, x-y, z'
  24   'x, y, z'
loop_
_atom_type_symbol
_atom_type_oxidation_number
W6+     6.
O2-     -2.
loop_
_atom_site_label
_atom_site_type_symbol
_atom_site_symmetry_multiplicity
_atom_site_Wyckoff_symbol
_atom_site_fract_x
_atom_site_fract_y
_atom_site_fract_z
_atom_site_B_iso_or_equiv
_atom_site_occupancy
W1 W6+ 6 g 0.4723(14) 0 0.25 0. 1.
O1 O2- 12 j 0.423 0.211 0.25 0. 1.
O2 O2- 12 k 0.431(18) 0 0.018(26) 0. 0.5
#End of data_80635-ICSD

###############################################################################
# Oi, J.;Kishimoto, A.;Kudo, T.;Hiratani, M. (1992)
# Journal of Solid State Chemistry 96, 13-19
# Hexagonal tungsten trioxide obtained from peroxo-polytungstate and \
# reversible lithium electro-intercalation into its framework
# 
# CIF by ICSD-for-WWW,  Copyright 2003 FIZ-Karlsruhe & A.W.Hewat (hewat@ill.fr)
# NOT TO BE PUBLISHED IN ANY FORM. See http://icsd.ill.fr/icsd/conditions.html
###############################################################################

data_80634-ICSD
_database_code_ICSD                80634
_audit_creation_date               1997-05-13
_chemical_name_systematic
'Tungsten oxide - h'
_chemical_formula_structural       
'W O3'
_chemical_formula_sum              
'O3 W1'
_publ_section_title                
'O3 W1'
loop_
_citation_id
_citation_journal_abbrev
_citation_year
_citation_journal_volume
_citation_page_first
_citation_page_last
_citation_journal_id_ASTM
primary 'Journal of Solid State Chemistry' 1992 96 13 19 JSSCBI
loop_
_publ_author_name
Oi, J.;Kishimoto, A.;Kudo, T.;Hiratani, M.
_cell_length_a                     7.3244(6)
_cell_length_b                     7.3244(6)
_cell_length_c                     7.6628(5)
_cell_angle_alpha                  90.
_cell_angle_beta                   90.
_cell_angle_gamma                  120.
_cell_volume                       356.0105
_cell_formula_units_Z              6.000
_symmetry_space_group_name_H-M     'P 63/m c m'
_symmetry_Int_Tables_number        193
_refine_ls_R_factor_all            0.0686
loop_
_symmetry_equiv_pos_site_id
_symmetry_equiv_pos_as_xyz
   1   '-x, -x+y, -z+1/2'
   2   'x-y, -y, -z+1/2'
   3   'y, x, -z+1/2'
   4   '-x+y, -x, -z+1/2'
   5   '-y, x-y, -z+1/2'
   6   'x, y, -z+1/2'
   7   'x, x-y, z+1/2'
   8   '-x+y, y, z+1/2'
   9   '-y, -x, z+1/2'
  10   'x-y, x, z+1/2'
  11   'y, -x+y, z+1/2'
  12   '-x, -y, z+1/2'
  13   'x, x-y, -z'
  14   '-x+y, y, -z'
  15   '-y, -x, -z'
  16   'x-y, x, -z'
  17   'y, -x+y, -z'
  18   '-x, -y, -z'
  19   '-x, -x+y, z'
  20   'x-y, -y, z'
  21   'y, x, z'
  22   '-x+y, -x, z'
  23   '-y, x-y, z'
  24   'x, y, z'
loop_
_atom_type_symbol
_atom_type_oxidation_number
W6+     6.
O2-     -2.
loop_
_atom_site_label
_atom_site_type_symbol
_atom_site_symmetry_multiplicity
_atom_site_Wyckoff_symbol
_atom_site_fract_x
_atom_site_fract_y
_atom_site_fract_z
_atom_site_B_iso_or_equiv
_atom_site_occupancy
W1 W6+ 6 g 0.4721(13) 0 0.25 0. 1.
O1 O2- 12 j 0.3745(92) 0.183(11) 0.25 0. 1.
O2 O2- 12 k 0.445(19) 0 0.016(27) 0. 0.5
#End of data_80634-ICSD

###############################################################################
# Woodward, P.M.;Sleight, A.W.;Vogt, T. (1995)
# Journal of Physics and Chemistry of Solids 56, 1305-1315
# Structure refinement of triclinic tungsten trioxide
# 
# CIF by ICSD-for-WWW,  Copyright 2003 FIZ-Karlsruhe & A.W.Hewat (hewat@ill.fr)
# NOT TO BE PUBLISHED IN ANY FORM. See http://icsd.ill.fr/icsd/conditions.html
###############################################################################

data_80057-ICSD
_database_code_ICSD                80057
_audit_creation_date               1996-10-14
_chemical_name_systematic
'Tungsten oxide'
_chemical_formula_structural       
'W O3'
_chemical_formula_sum              
'O3 W1'
_publ_section_title                
'O3 W1'
loop_
_citation_id
_citation_journal_abbrev
_citation_year
_citation_journal_volume
_citation_page_first
_citation_page_last
_citation_journal_id_ASTM
primary 'Journal of Physics and Chemistry of Soli' 1995 56 1305 1315 JPCSAW
loop_
_publ_author_name
Woodward, P.M.;Sleight, A.W.;Vogt, T.
_cell_length_a                     7.30131(9)
_cell_length_b                     7.53895(8)
_cell_length_c                     7.68932(9)
_cell_angle_alpha                  90.
_cell_angle_beta                   90.8930(9)
_cell_angle_gamma                  90.
_cell_volume                       423.2009
_cell_formula_units_Z              8.000
_symmetry_space_group_name_H-M     'P 1 21/n 1'
_symmetry_Int_Tables_number        14
_refine_ls_R_factor_all            0.137
loop_
_symmetry_equiv_pos_site_id
_symmetry_equiv_pos_as_xyz
   1   '-x+1/2, y+1/2, -z+1/2'
   2   '-x, -y, -z'
   3   'x+1/2, -y+1/2, z+1/2'
   4   'x, y, z'
loop_
_atom_type_symbol
_atom_type_oxidation_number
W6+     6.
O2-     -2.
loop_
_atom_site_label
_atom_site_type_symbol
_atom_site_symmetry_multiplicity
_atom_site_Wyckoff_symbol
_atom_site_fract_x
_atom_site_fract_y
_atom_site_fract_z
_atom_site_B_iso_or_equiv
_atom_site_occupancy
W1 W6+ 4 e 0.2493(8) 0.0282(8) 0.2865(6) 0.7(1) 1.
W2 W6+ 4 e 0.2499(8) 0.0339(8) 0.7813(6) 0.65(9) 1.
O1 O2- 4 e 0.0010(7) 0.0362(9) 0.2099(5) 1.0(1) 1.
O2 O2- 4 e 0.9966(7) 0.4619(9) 0.2178(6) 1.1(6) 1.
O3 O2- 4 e 0.2835(5) 0.2601(9) 0.2864(4) 1.03(7) 1.
O4 O2- 4 e 0.2103(5) 0.259(1) 0.7307(4) 1.29(8) 1.
O5 O2- 4 e 0.2855(8) 0.0405(7) 0.0046(6) 1.8(1) 1.
O6 O2- 4 e 0.2845(7) 0.4853(6) 0.9930(5) 0.89(9) 1.
#End of data_80057-ICSD

###############################################################################
# Woodward, P.M.;Sleight, A.W.;Vogt, T. (1995)
# Journal of Physics and Chemistry of Solids 56, 1305-1315
# Structure refinement of triclinic tungsten trioxide
# 
# CIF by ICSD-for-WWW,  Copyright 2003 FIZ-Karlsruhe & A.W.Hewat (hewat@ill.fr)
# NOT TO BE PUBLISHED IN ANY FORM. See http://icsd.ill.fr/icsd/conditions.html
###############################################################################

data_80056-ICSD
_database_code_ICSD                80056
_audit_creation_date               1996-10-14
_chemical_name_systematic
'Tungsten oxide'
_chemical_formula_structural       
'W O3'
_chemical_formula_sum              
'O3 W1'
_publ_section_title                
'O3 W1'
loop_
_citation_id
_citation_journal_abbrev
_citation_year
_citation_journal_volume
_citation_page_first
_citation_page_last
_citation_journal_id_ASTM
primary 'Journal of Physics and Chemistry of Soli' 1995 56 1305 1315 JPCSAW
loop_
_publ_author_name
Woodward, P.M.;Sleight, A.W.;Vogt, T.
_cell_length_a                     7.30084(7)
_cell_length_b                     7.53889(7)
_cell_length_c                     7.68962(8)
_cell_angle_alpha                  90.
_cell_angle_beta                   90.892(1)
_cell_angle_gamma                  90.
_cell_volume                       423.1901
_cell_formula_units_Z              8.000
_symmetry_space_group_name_H-M     'P 1 21/n 1'
_symmetry_Int_Tables_number        14
_refine_ls_R_factor_all            0.0794
loop_
_symmetry_equiv_pos_site_id
_symmetry_equiv_pos_as_xyz
   1   '-x+1/2, y+1/2, -z+1/2'
   2   '-x, -y, -z'
   3   'x+1/2, -y+1/2, z+1/2'
   4   'x, y, z'
loop_
_atom_type_symbol
_atom_type_oxidation_number
W6+     6.
O2-     -2.
loop_
_atom_site_label
_atom_site_type_symbol
_atom_site_symmetry_multiplicity
_atom_site_Wyckoff_symbol
_atom_site_fract_x
_atom_site_fract_y
_atom_site_fract_z
_atom_site_B_iso_or_equiv
_atom_site_occupancy
W1 W6+ 4 e 0.2513(6) 0.0277(7) 0.2865(5) 0.67(8) 1.
W2 W6+ 4 e 0.2481(6) 0.0342(6) 0.7815(5) 0.60(8) 1.
O1 O2- 4 e 0.0008(6) 0.0366(8) 0.2116(5) 0.90(9) 1.
O2 O2- 4 e 0.9973(6) 0.4632(8) 0.2164(5) 0.90(9) 1.
O3 O2- 4 e 0.2821(4) 0.2602(7) 0.2870(4) 0.88(6) 1.
O4 O2- 4 e 0.2107(4) 0.2602(8) 0.7310(4) 1.08(7) 1.
O5 O2- 4 e 0.2859(6) 0.0390(6) 0.0065(5) 1.17(9) 1.
O6 O2- 4 e 0.2849(6) 0.4850(5) 0.9922(4) 0.87(8) 1.
#End of data_80056-ICSD

###############################################################################
# Woodward, P.M.;Sleight, A.W.;Vogt, T. (1995)
# Journal of Physics and Chemistry of Solids 56, 1305-1315
# Structure refinement of triclinic tungsten trioxide
# 
# CIF by ICSD-for-WWW,  Copyright 2003 FIZ-Karlsruhe & A.W.Hewat (hewat@ill.fr)
# NOT TO BE PUBLISHED IN ANY FORM. See http://icsd.ill.fr/icsd/conditions.html
###############################################################################

data_80055-ICSD
_database_code_ICSD                80055
_audit_creation_date               1996-10-14
_chemical_name_systematic
'Tungsten oxide'
_chemical_formula_structural       
'W O3'
_chemical_formula_sum              
'O3 W1'
_publ_section_title                
'O3 W1'
loop_
_citation_id
_citation_journal_abbrev
_citation_year
_citation_journal_volume
_citation_page_first
_citation_page_last
_citation_journal_id_ASTM
primary 'Journal of Physics and Chemistry of Soli' 1995 56 1305 1315 JPCSAW
loop_
_publ_author_name
Woodward, P.M.;Sleight, A.W.;Vogt, T.
_cell_length_a                     7.3105(2)
_cell_length_b                     7.5241(2)
_cell_length_c                     7.6859(2)
_cell_angle_alpha                  88.850(2)
_cell_angle_beta                   90.913(3)
_cell_angle_gamma                  90.935(2)
_cell_volume                       422.571
_cell_formula_units_Z              8.000
_symmetry_space_group_name_H-M     'P -1'
_symmetry_Int_Tables_number        2
_refine_ls_R_factor_all            0.137
loop_
_symmetry_equiv_pos_site_id
_symmetry_equiv_pos_as_xyz
   1   '-x, -y, -z'
   2   'x, y, z'
loop_
_atom_type_symbol
_atom_type_oxidation_number
W6+     6.
O2-     -2.
loop_
_atom_site_label
_atom_site_type_symbol
_atom_site_symmetry_multiplicity
_atom_site_Wyckoff_symbol
_atom_site_fract_x
_atom_site_fract_y
_atom_site_fract_z
_atom_site_B_iso_or_equiv
_atom_site_occupancy
W1 W6+ 2 i 0.261(3) 0.025(3) 0.289(3) 0.7(4) 1.
W2 W6+ 2 i 0.249(4) 0.526(3) 0.227(3) 1.7(5) 1.
W3 W6+ 2 i 0.242(3) 0.024(3) 0.784(3) 0.8(4) 1.
W4 W6+ 2 i 0.258(3) 0.531(3) 0.717(3) 0.4(4) 1.
O1 O2- 2 i 0.001(3) 0.037(2) 0.185(2) 0.1(3) 1.
O2 O2- 2 i 0.501(3) 0.524(2) 0.217(2) 0.0(3) 1.
O3 O2- 2 i 0.998(4) 0.475(3) 0.296(2) 1.7(5) 1.
O4 O2- 2 i 0.502(3) 0.951(2) 0.273(2) -.4(3) 1.
O5 O2- 2 i 0.281(3) 0.251(2) 0.291(2) -.1(3) 1.
O6 O2- 2 i 0.215(3) 0.765(2) 0.211(2) 0.4(4) 1.
O7 O2- 2 i 0.207(3) 0.259(3) 0.743(3) 1.3(4) 1.
O8 O2- 2 i 0.287(4) 0.767(3) 0.765(3) 2.6(5) 1.
O9 O2- 2 i 0.291(3) 0.045(3) 0.996(2) 0.4(4) 1.
O10 O2- 2 i 0.290(3) 0.540(3) 0.502(2) 0.8(4) 1.
O11 O2- 2 i 0.212(4) 0.494(2) 0.991(2) 1.3(4) 1.
O12 O2- 2 i 0.212(3) 0.980(3) 0.505(2) 0.4(4) 1.
#End of data_80055-ICSD

###############################################################################
# Woodward, P.M.;Sleight, A.W.;Vogt, T. (1995)
# Journal of Physics and Chemistry of Solids 56, 1305-1315
# Structure refinement of triclinic tungsten trioxide
# 
# CIF by ICSD-for-WWW,  Copyright 2003 FIZ-Karlsruhe & A.W.Hewat (hewat@ill.fr)
# NOT TO BE PUBLISHED IN ANY FORM. See http://icsd.ill.fr/icsd/conditions.html
###############################################################################

data_80054-ICSD
_database_code_ICSD                80054
_audit_creation_date               1996-10-14
_chemical_name_systematic
'Tungsten oxide'
_chemical_formula_structural       
'W O3'
_chemical_formula_sum              
'O3 W1'
_publ_section_title                
'O3 W1'
loop_
_citation_id
_citation_journal_abbrev
_citation_year
_citation_journal_volume
_citation_page_first
_citation_page_last
_citation_journal_id_ASTM
primary 'Journal of Physics and Chemistry of Soli' 1995 56 1305 1315 JPCSAW
loop_
_publ_author_name
Woodward, P.M.;Sleight, A.W.;Vogt, T.
_cell_length_a                     7.31278
_cell_length_b                     7.5254
_cell_length_c                     7.68954
_cell_angle_alpha                  88.847
_cell_angle_beta                   90.912
_cell_angle_gamma                  90.94
_cell_volume                       422.9706
_cell_formula_units_Z              8.000
_symmetry_space_group_name_H-M     'P -1'
_symmetry_Int_Tables_number        2
_refine_ls_R_factor_all            0.0794
loop_
_symmetry_equiv_pos_site_id
_symmetry_equiv_pos_as_xyz
   1   '-x, -y, -z'
   2   'x, y, z'
loop_
_atom_type_symbol
_atom_type_oxidation_number
W6+     6.
O2-     -2.
loop_
_atom_site_label
_atom_site_type_symbol
_atom_site_symmetry_multiplicity
_atom_site_Wyckoff_symbol
_atom_site_fract_x
_atom_site_fract_y
_atom_site_fract_z
_atom_site_B_iso_or_equiv
_atom_site_occupancy
W1 W6+ 2 i 0.256(3) 0.023(3) 0.289(3) 0.3(1) 1.
W2 W6+ 2 i 0.250(3) 0.528(2) 0.219(2) 0.3(1) 1.
W3 W6+ 2 i 0.240(3) 0.035(2) 0.783(2) 0.3(1) 1.
W4 W6+ 2 i 0.250(3) 0.528(3) 0.718(3) 0.3(1) 1.
O1 O2- 2 i 0.006(3) 0.040(2) 0.195(2) 0.16(7) 1.
O2 O2- 2 i 0.498(3) 0.543(3) 0.223(2) 0.16(7) 1.
O3 O2- 2 i 0.000(3) 0.474(2) 0.293(2) 0.16(7) 1.
O4 O2- 2 i 0.500(3) 0.968(3) 0.276(2) 0.16(7) 1.
O5 O2- 2 i 0.293(3) 0.257(2) 0.280(2) 0.16(7) 1.
O6 O2- 2 i 0.213(3) 0.759(2) 0.219(2) 0.16(7) 1.
O7 O2- 2 i 0.205(3) 0.256(2) 0.744(2) 0.16(7) 1.
O8 O2- 2 i 0.278(3) 0.763(2) 0.784(2) 0.16(7) 1.
O9 O2- 2 i 0.293(3) 0.038(2) 0.993(2) 0.16(7) 1.
O10 O2- 2 i 0.289(3) 0.547(2) 0.502(2) 0.16(7) 1.
O11 O2- 2 i 0.214(3) 0.486(2) 0.992(2) 0.16(7) 1.
O12 O2- 2 i 0.207(3) 0.983(2) 0.503(2) 0.16(7) 1.
#End of data_80054-ICSD

###############################################################################
# Woodward, P.M.;Sleight, A.W.;Vogt, T. (1995)
# Journal of Physics and Chemistry of Solids 56, 1305-1315
# Structure refinement of triclinic tungsten trioxide
# 
# CIF by ICSD-for-WWW,  Copyright 2003 FIZ-Karlsruhe & A.W.Hewat (hewat@ill.fr)
# NOT TO BE PUBLISHED IN ANY FORM. See http://icsd.ill.fr/icsd/conditions.html
###############################################################################

data_80053-ICSD
_database_code_ICSD                80053
_audit_creation_date               1996-10-14
_chemical_name_systematic
'Tungsten oxide'
_chemical_formula_structural       
'W O3'
_chemical_formula_sum              
'O3 W1'
_publ_section_title                
'O3 W1'
loop_
_citation_id
_citation_journal_abbrev
_citation_year
_citation_journal_volume
_citation_page_first
_citation_page_last
_citation_journal_id_ASTM
primary 'Journal of Physics and Chemistry of Soli' 1995 56 1305 1315 JPCSAW
loop_
_publ_author_name
Woodward, P.M.;Sleight, A.W.;Vogt, T.
_cell_length_a                     7.31261(6)
_cell_length_b                     7.52521(7)
_cell_length_c                     7.68937(7)
_cell_angle_alpha                  88.847
_cell_angle_beta                   90.912
_cell_angle_gamma                  90.94
_cell_volume                       422.9409
_cell_formula_units_Z              8.000
_symmetry_space_group_name_H-M     'P -1'
_symmetry_Int_Tables_number        2
_refine_ls_R_factor_all            0.0406
loop_
_symmetry_equiv_pos_site_id
_symmetry_equiv_pos_as_xyz
   1   '-x, -y, -z'
   2   'x, y, z'
loop_
_atom_type_symbol
_atom_type_oxidation_number
W6+     6.
O2-     -2.
loop_
_atom_site_label
_atom_site_type_symbol
_atom_site_symmetry_multiplicity
_atom_site_Wyckoff_symbol
_atom_site_fract_x
_atom_site_fract_y
_atom_site_fract_z
_atom_site_B_iso_or_equiv
_atom_site_occupancy
W1 W6+ 2 i 0.2566 0.0259 0.285 0.09(3) 1.
W2 W6+ 2 i 0.2502 0.528 0.2158 0.09(3) 1.
W3 W6+ 2 i 0.2438 0.0313 0.7817 0.09(3) 1.
W4 W6+ 2 i 0.2499 0.5338 0.719 0.09(3) 1.
O1 O2- 2 i 0.0012(8) 0.0340(7) 0.2109(7) 0.69(3) 1.
O2 O2- 2 i 0.5010(8) 0.5379(8) 0.2170(8) 0.69(3) 1.
O3 O2- 2 i 0.0007(8) 0.4640(7) 0.2857(8) 0.69(3) 1.
O4 O2- 2 i 0.4994(8) 0.9648(8) 0.2885(7) 0.69(3) 1.
O5 O2- 2 i 0.2875(9) 0.2600(7) 0.2843(7) 0.74(3) 1.
O6 O2- 2 i 0.2115(8) 0.7619(6) 0.2157(7) 0.74(3) 1.
O7 O2- 2 i 0.2117(9) 0.2582(7) 0.7286(7) 0.74(3) 1.
O8 O2- 2 i 0.2846(9) 0.7608(6) 0.7726(7) 0.74(3) 1.
O9 O2- 2 i 0.2878(8) 0.0412(7) 0.0037(7) 0.71(3) 1.
O10 O2- 2 i 0.2840(8) 0.5420(7) 0.4961(6) 0.71(3) 1.
O11 O2- 2 i 0.213(1) 0.4841(6) 0.9917(6) 0.71(3) 1.
O12 O2- 2 i 0.2096(9) 0.9818(7) 0.5062(6) 0.71(3) 1.
#End of data_80053-ICSD

###############################################################################
# Sundberg, M.R.;Werner, P.E.;Zibrov, I.P. (1994)
# Zeitschrift fuer Krist. (149,1979-) 209, 662-666
# X-ray powder crystal structure analysis of high pressure tungsten dioxide. \
# On the information in weak reflections
# 
# CIF by ICSD-for-WWW,  Copyright 2003 FIZ-Karlsruhe & A.W.Hewat (hewat@ill.fr)
# NOT TO BE PUBLISHED IN ANY FORM. See http://icsd.ill.fr/icsd/conditions.html
###############################################################################

data_74774-ICSD
_database_code_ICSD                74774
_audit_creation_date               1995-10-17
_chemical_name_systematic
'Tungsten(IV) oxide - Hp'
_chemical_formula_structural       
'W O2'
_chemical_formula_sum              
'O2 W1'
_publ_section_title                
'O2 W1'
loop_
_citation_id
_citation_journal_abbrev
_citation_year
_citation_journal_volume
_citation_page_first
_citation_page_last
_citation_journal_id_ASTM
primary 'Zeitschrift fuer Krist. (149,1979-)' 1994 209 662 666 ZEKRDZ
loop_
_publ_author_name
Sundberg, M.R.;Werner, P.E.;Zibrov, I.P.
_cell_length_a                     9.7164(3)
_cell_length_b                     8.4380(3)
_cell_length_c                     4.7564(2)
_cell_angle_alpha                  90.
_cell_angle_beta                   90.
_cell_angle_gamma                  90.
_cell_volume                       389.9605
_cell_formula_units_Z              12.000
_symmetry_space_group_name_H-M     'P n m a'
_symmetry_Int_Tables_number        62
_refine_ls_R_factor_all            0.0686
loop_
_symmetry_equiv_pos_site_id
_symmetry_equiv_pos_as_xyz
   1   'x+1/2, y, -z+1/2'
   2   'x, -y+1/2, z'
   3   '-x+1/2, y+1/2, z+1/2'
   4   '-x, -y, -z'
   5   '-x+1/2, -y, z+1/2'
   6   '-x, y+1/2, -z'
   7   'x+1/2, -y+1/2, -z+1/2'
   8   'x, y, z'
loop_
_atom_type_symbol
_atom_type_oxidation_number
W4+     4.
O2-     -2.
loop_
_atom_site_label
_atom_site_type_symbol
_atom_site_symmetry_multiplicity
_atom_site_Wyckoff_symbol
_atom_site_fract_x
_atom_site_fract_y
_atom_site_fract_z
_atom_site_B_iso_or_equiv
_atom_site_occupancy
W1 W4+ 4 c 0.1341(2) 0.25 0.9798(5) 1.3(2) 1.
W2 W4+ 8 d 0.3665(1) 0.1003(1) 0.9949(4) 1.4(2) 1.
O1 O2- 8 d 0.033(2) 0.087(3) 0.271(3) 1.1(4) 1.
O2 O2- 8 d 0.217(3) 0.078(4) 0.759(4) 3.1(6) 1.
O3 O2- 4 c 0.288(4) 0.25 0.268(6) 1.8(7) 1.
O4 O2- 4 c 0.474(4) 0.25 0.739(5) 1.5(7) 1.
#End of data_74774-ICSD

###############################################################################
# Sundberg, M.R.;Zakharov, N.D.;Zibrov, I.P.;Barabanenkov, Yu.A.;\
# Filonenko, V.P.;Werner, P. (1993)
# Acta Crystallographica B (39,1983-) 49, 951-958
# Two high-pressure tungsten oxide structure of W3O8 stoichiometry deduced \
# from high-resolution electron microscopy images
# 
# CIF by ICSD-for-WWW,  Copyright 2003 FIZ-Karlsruhe & A.W.Hewat (hewat@ill.fr)
# NOT TO BE PUBLISHED IN ANY FORM. See http://icsd.ill.fr/icsd/conditions.html
###############################################################################

data_73720-ICSD
_database_code_ICSD                73720
_audit_creation_date               1995-01-10
_chemical_name_systematic
'Tungsten oxide (3/8) - II'
_chemical_formula_structural       
'W3 O8'
_chemical_formula_sum              
'O8 W3'
_publ_section_title                
'O8 W3'
loop_
_citation_id
_citation_journal_abbrev
_citation_year
_citation_journal_volume
_citation_page_first
_citation_page_last
_citation_journal_id_ASTM
primary 'Acta Crystallographica B (39,1983-)' 1993 49 951 958 ASBSDK
loop_
_publ_author_name
Sundberg, M.R.;Zakharov, N.D.;Zibrov, I.P.;Barabanenkov, Yu.A.;\
Filonenko, V.P.;Werner, P.
_cell_length_a                     10.35(5)
_cell_length_b                     13.99(5)
_cell_length_c                     3.78(1)
_cell_angle_alpha                  90.
_cell_angle_beta                   90.
_cell_angle_gamma                  90.
_cell_volume                       547.3308
_cell_formula_units_Z              4.000
_symmetry_space_group_name_H-M     'P b a m'
_symmetry_Int_Tables_number        55
loop_
_symmetry_equiv_pos_site_id
_symmetry_equiv_pos_as_xyz
   1   'x+1/2, -y+1/2, z'
   2   '-x+1/2, y+1/2, z'
   3   'x, y, -z'
   4   '-x, -y, -z'
   5   '-x+1/2, y+1/2, -z'
   6   'x+1/2, -y+1/2, -z'
   7   '-x, -y, z'
   8   'x, y, z'
loop_
_atom_type_symbol
_atom_type_oxidation_number
W5+33     5.333
O2-     -2.
loop_
_atom_site_label
_atom_site_type_symbol
_atom_site_symmetry_multiplicity
_atom_site_Wyckoff_symbol
_atom_site_fract_x
_atom_site_fract_y
_atom_site_fract_z
_atom_site_B_iso_or_equiv
_atom_site_occupancy
W1 W5+33 4 g 0.030(4) 0.388(3) 0 0. 1.
W2 W5+33 4 g 0.215(4) 0.087(3) 0 0. 1.
W3 W5+33 4 g 0.374(4) 0.333(3) 0 0. 1.
O1 O2- 4 g 0.045(10) 0.165(7) 0 0. 1.
O2 O2- 4 g 0.13(1) 0.5 0 0. 1.
O3 O2- 4 g 0.192(10) 0.320(7) 0 0. 1.
O4 O2- 4 g 0.343(10) 0.185(7) 0 0. 1.
O5 O2- 4 g 0.386(10) 0.470(7) 0 0. 1.
O6 O2- 4 h 0.027(10) 0.388(7) 0.5 0. 1.
O7 O2- 4 h 0.215(10) 0.087(7) 0.5 0. 1.
O8 O2- 4 h 0.374(10) 0.333(7) 0.5 0. 1.
#End of data_73720-ICSD

###############################################################################
# Sundberg, M.R.;Zakharov, N.D.;Zibrov, I.P.;Barabanenkov, Yu.A.;\
# Filonenko, V.P.;Werner, P. (1993)
# Acta Crystallographica B (39,1983-) 49, 951-958
# Two high-pressure tungsten oxide structures of W3O8 stoichiometry deduced \
# from high-resolution electron microscopy images
# 
# CIF by ICSD-for-WWW,  Copyright 2003 FIZ-Karlsruhe & A.W.Hewat (hewat@ill.fr)
# NOT TO BE PUBLISHED IN ANY FORM. See http://icsd.ill.fr/icsd/conditions.html
###############################################################################

data_73719-ICSD
_database_code_ICSD                73719
_audit_creation_date               1995-01-10
_chemical_name_systematic
'Tungsten oxide (3/8) - I'
_chemical_formula_structural       
'W3 O8'
_chemical_formula_sum              
'O8 W3'
_publ_section_title                
'O8 W3'
loop_
_citation_id
_citation_journal_abbrev
_citation_year
_citation_journal_volume
_citation_page_first
_citation_page_last
_citation_journal_id_ASTM
primary 'Acta Crystallographica B (39,1983-)' 1993 49 951 958 ASBSDK
loop_
_publ_author_name
Sundberg, M.R.;Zakharov, N.D.;Zibrov, I.P.;Barabanenkov, Yu.A.;\
Filonenko, V.P.;Werner, P.
_cell_length_a                     6.386(9)
_cell_length_b                     10.43(5)
_cell_length_c                     3.80(1)
_cell_angle_alpha                  90.
_cell_angle_beta                   90.
_cell_angle_gamma                  90.
_cell_volume                       253.1009
_cell_formula_units_Z              2.000
_symmetry_space_group_name_H-M     'C 2 2 2'
_symmetry_Int_Tables_number        21
loop_
_symmetry_equiv_pos_site_id
_symmetry_equiv_pos_as_xyz
   1   '-x, y, -z'
   2   'x, -y, -z'
   3   '-x, -y, z'
   4   'x, y, z'
   5   '-x+1/2, y+1/2, -z'
   6   'x+1/2, -y+1/2, -z'
   7   '-x+1/2, -y+1/2, z'
   8   'x+1/2, y+1/2, z'
loop_
_atom_type_symbol
_atom_type_oxidation_number
W5+33     5.333
O2-     -2.
loop_
_atom_site_label
_atom_site_type_symbol
_atom_site_symmetry_multiplicity
_atom_site_Wyckoff_symbol
_atom_site_fract_x
_atom_site_fract_y
_atom_site_fract_z
_atom_site_B_iso_or_equiv
_atom_site_occupancy
W1 W5+33 2 a 0 0 0 0. 1.
W2 W5+33 4 g 0 0.324(4) 0 0. 1.
O1 O2- 2 b 0 0.5 0 0. 1.
O2 O2- 2 d 0 0 0.5 0. 1.
O3 O2- 4 h 0 0.302(10) 0.5 0. 1.
O4 O2- 8 l 0.157(16) 0.152(10) 0.150(26) 0. 1.
#End of data_73719-ICSD

###############################################################################
# Barabanenkov, Yu.A.;Val'kovskii, M.D.;Zakharov, N.D.;Zibrov, I.P.;\
# Popov, A.I.;Filonenko, V.P. (1992)
# Zhurnal Neorganicheskoi Khimii 37, 19-24
# Structure of tungsten oxide W O2.625 (W32 O84)
# 
# CIF by ICSD-for-WWW,  Copyright 2003 FIZ-Karlsruhe & A.W.Hewat (hewat@ill.fr)
# NOT TO BE PUBLISHED IN ANY FORM. See http://icsd.ill.fr/icsd/conditions.html
###############################################################################

data_39557-ICSD
_database_code_ICSD                39557
_audit_creation_date               1992-08-20
_chemical_name_systematic
'Tungsten oxide (32/84)'
_chemical_formula_structural       
'W32 O84'
_chemical_formula_sum              
'O84 W32'
_publ_section_title                
'O84 W32'
loop_
_citation_id
_citation_journal_abbrev
_citation_year
_citation_journal_volume
_citation_page_first
_citation_page_last
_citation_journal_id_ASTM
primary 'Zhurnal Neorganicheskoi Khimii' 1992 37 19 24 ZNOKAQ
loop_
_publ_author_name
Barabanenkov, Yu.A.;Val'kovskii, M.D.;Zakharov, N.D.;Zibrov, I.P.;\
Popov, A.I.;Filonenko, V.P.
_cell_length_a                     21.431(9)
_cell_length_b                     17.766(7)
_cell_length_c                     3.783(2)
_cell_angle_alpha                  90.
_cell_angle_beta                   90.
_cell_angle_gamma                  90.
_cell_volume                       1440.3503
_cell_formula_units_Z              1.000
_symmetry_space_group_name_H-M     'P b a m'
_symmetry_Int_Tables_number        55
_refine_ls_R_factor_all            0.0758
loop_
_symmetry_equiv_pos_site_id
_symmetry_equiv_pos_as_xyz
   1   'x+1/2, -y+1/2, z'
   2   '-x+1/2, y+1/2, z'
   3   'x, y, -z'
   4   '-x, -y, -z'
   5   '-x+1/2, y+1/2, -z'
   6   'x+1/2, -y+1/2, -z'
   7   '-x, -y, z'
   8   'x, y, z'
loop_
_atom_type_symbol
_atom_type_oxidation_number
W0+     0.
O0+     0.
loop_
_atom_site_label
_atom_site_type_symbol
_atom_site_symmetry_multiplicity
_atom_site_Wyckoff_symbol
_atom_site_fract_x
_atom_site_fract_y
_atom_site_fract_z
_atom_site_B_iso_or_equiv
_atom_site_occupancy
W1 W0+ 4 g 0.105 0.0687 0 0.019(3) 1.
W2 W0+ 4 g 0.168 0.2589 0 0.019(3) 1.
W3 W0+ 4 g 0.357 0.2477 0 0.019(3) 1.
W4 W0+ 4 g 0.3826 0.031 0 0.019(3) 1.
W5 W0+ 4 g 0.25 0.1013 0 0.019(3) 1.
W6 W0+ 4 g 0.0163 0.3518 0 0.019(3) 1.
W7 W0+ 4 g 0.266 0.4165 0 0.019(3) 1.
W8 W0+ 4 g 0.434 0.3602 0 0.019(3) 1.
O1 O0+ 4 g 0.028 0.1295 0 0.055(12) 1.
O2 O0+ 4 g 0.1493 0.1576 0 0.055(12) 1.
O3 O0+ 4 g 0.0793 0.2786 0 0.055(12) 1.
O4 O0+ 4 g 0.0877 0.4368 0 0.055(12) 1.
O5 O0+ 4 g 0.1857 0.3524 0 0.055(12) 1.
O6 O0+ 4 g 0.2613 0.2375 0 0.055(12) 1.
O7 O0+ 4 g 0.2006 0.4925 0 0.055(12) 1.
O8 O0+ 4 g 0.343 0.3602 0 0.055(12) 1.
O9 O0+ 4 g 0.349 0.1323 0 0.055(12) 1.
O10 O0+ 4 g 0.462 0.0743 0 0.055(12) 1.
O11 O0+ 4 g 0.4526 0.2477 0 0.055(12) 1.
O12 O0+ 4 g 0.4377 0.4728 0 0.055(12) 1.
O13 O0+ 4 g 0.1801 0.0113 0 0.055(12) 1.
O14 O0+ 4 h 0.105 0.0687 0.5 0.055(12) 1.
O15 O0+ 4 h 0.168 0.2589 0.5 0.055(12) 1.
O16 O0+ 4 h 0.357 0.2477 0.5 0.055(12) 1.
O17 O0+ 4 h 0.3826 0.031 0.5 0.055(12) 1.
O18 O0+ 4 h 0.25 0.1013 0.5 0.055(12) 1.
O19 O0+ 4 h 0.0163 0.3518 0.5 0.055(12) 1.
O20 O0+ 4 h 0.266 0.4165 0.5 0.055(12) 1.
O21 O0+ 4 h 0.434 0.3602 0.5 0.055(12) 1.
#End of data_39557-ICSD

###############################################################################
# Gerand, B.;Novogorocki, G.;Guenot, J.;Figlarz, M. (1979)
# Journal of Solid State Chemistry 29, 429-434
# Structural study of a new hexagonal form of tungsten trioxide
# 
# CIF by ICSD-for-WWW,  Copyright 2003 FIZ-Karlsruhe & A.W.Hewat (hewat@ill.fr)
# NOT TO BE PUBLISHED IN ANY FORM. See http://icsd.ill.fr/icsd/conditions.html
###############################################################################

data_32001-ICSD
_database_code_ICSD                32001
_audit_creation_date               1980-01-01
_chemical_name_systematic
'Tungsten oxide'
_chemical_formula_structural       
'W O3'
_chemical_formula_sum              
'O3 W1'
_publ_section_title                
'O3 W1'
loop_
_citation_id
_citation_journal_abbrev
_citation_year
_citation_journal_volume
_citation_page_first
_citation_page_last
_citation_journal_id_ASTM
primary 'Journal of Solid State Chemistry' 1979 29 429 434 JSSCBI
loop_
_publ_author_name
Gerand, B.;Novogorocki, G.;Guenot, J.;Figlarz, M.
_cell_length_a                     7.298(2)
_cell_length_b                     7.298(2)
_cell_length_c                     3.899(2)
_cell_angle_alpha                  90.
_cell_angle_beta                   90.
_cell_angle_gamma                  120.
_cell_volume                       179.8401
_cell_formula_units_Z              3.000
_symmetry_space_group_name_H-M     'P 6/m m m'
_symmetry_Int_Tables_number        191
_refine_ls_R_factor_all            0.056
loop_
_symmetry_equiv_pos_site_id
_symmetry_equiv_pos_as_xyz
   1   '-x, -x+y, -z'
   2   'x-y, -y, -z'
   3   'y, x, -z'
   4   '-x+y, -x, -z'
   5   '-y, x-y, -z'
   6   'x, y, -z'
   7   'x, x-y, -z'
   8   '-x+y, y, -z'
   9   '-y, -x, -z'
  10   'x-y, x, -z'
  11   'y, -x+y, -z'
  12   '-x, -y, -z'
  13   'x, x-y, z'
  14   '-x+y, y, z'
  15   '-y, -x, z'
  16   'x-y, x, z'
  17   'y, -x+y, z'
  18   '-x, -y, z'
  19   '-x, -x+y, z'
  20   'x-y, -y, z'
  21   'y, x, z'
  22   '-x+y, -x, z'
  23   '-y, x-y, z'
  24   'x, y, z'
loop_
_atom_type_symbol
_atom_type_oxidation_number
W6+     6.
O2-     -2.
loop_
_atom_site_label
_atom_site_type_symbol
_atom_site_symmetry_multiplicity
_atom_site_Wyckoff_symbol
_atom_site_fract_x
_atom_site_fract_y
_atom_site_fract_z
_atom_site_B_iso_or_equiv
_atom_site_occupancy
W1 W6+ 3 f 0.5 0 0 0. 1.
O1 O2- 3 g 0.5 0 0.5 6.3 1.
O2 O2- 6 l 0.212(6) 0.424 0 5.2 1.
loop_
_atom_site_aniso_label
_atom_site_aniso_type_symbol
_atom_site_aniso_Beta_11
_atom_site_aniso_Beta_22
_atom_site_aniso_Beta_33
_atom_site_aniso_Beta_12
_atom_site_aniso_Beta_13
_atom_site_aniso_Beta_23
W1 W6+ 0.015(4) 0.013(6) 0.057(9) 0.006(6) 0 0
#End of data_32001-ICSD

###############################################################################
# Loopstra, B.O.;Rietveld, H.M. (1969)
# Acta Crystallographica B (24,1968-38,1982) 25, 1420-1421
# Further refinement of the structure of W O3
# 
# CIF by ICSD-for-WWW,  Copyright 2003 FIZ-Karlsruhe & A.W.Hewat (hewat@ill.fr)
# NOT TO BE PUBLISHED IN ANY FORM. See http://icsd.ill.fr/icsd/conditions.html
###############################################################################

data_16080-ICSD
_database_code_ICSD                16080
_audit_creation_date               1980-01-01
_chemical_name_systematic
'Tungsten oxide'
_chemical_formula_structural       
'W O3'
_chemical_formula_sum              
'O3 W1'
_publ_section_title                
'O3 W1'
loop_
_citation_id
_citation_journal_abbrev
_citation_year
_citation_journal_volume
_citation_page_first
_citation_page_last
_citation_journal_id_ASTM
primary 'Acta Crystallographica B (24,1968-38,198' 1969 25 1420 1421 ACBCAR
loop_
_publ_author_name
Loopstra, B.O.;Rietveld, H.M.
_cell_length_a                     7.306(1)
_cell_length_b                     7.540(1)
_cell_length_c                     7.692(1)
_cell_angle_alpha                  90.
_cell_angle_beta                   90.881(5)
_cell_angle_gamma                  90.
_cell_volume                       423.6807
_cell_formula_units_Z              8.000
_symmetry_space_group_name_H-M     'P 1 21/n 1'
_symmetry_Int_Tables_number        14
_refine_ls_R_factor_all            0.0488
loop_
_symmetry_equiv_pos_site_id
_symmetry_equiv_pos_as_xyz
   1   '-x+1/2, y+1/2, -z+1/2'
   2   '-x, -y, -z'
   3   'x+1/2, -y+1/2, z+1/2'
   4   'x, y, z'
loop_
_atom_type_symbol
_atom_type_oxidation_number
W6+     6.
O2-     -2.
loop_
_atom_site_label
_atom_site_type_symbol
_atom_site_symmetry_multiplicity
_atom_site_Wyckoff_symbol
_atom_site_fract_x
_atom_site_fract_y
_atom_site_fract_z
_atom_site_B_iso_or_equiv
_atom_site_occupancy
W1 W6+ 4 e 0.2465(16) 0.0269(14) 0.2859(9) 0. 1.
W2 W6+ 4 e 0.2538(17) 0.0353(13) 0.7807(10) 0. 1.
O1 O2- 4 e 0.0025(13) 0.0350(15) 0.2106(8) 0. 1.
O2 O2- 4 e 0.9974(13) 0.4636(15) 0.2161(8) 0. 1.
O3 O2- 4 e 0.2840(7) 0.2605(13) 0.2848(7) 0. 1.
O4 O2- 4 e 0.2099(8) 0.2568(15) 0.7318(7) 0. 1.
O5 O2- 4 e 0.2827(10) 0.0383(15) 0.0046(7) 0. 1.
O6 O2- 4 e 0.2856(10) 0.484(1) 0.9944(6) 0. 1.
#End of data_16080-ICSD

###############################################################################
# Tanisaki, S. (1960)
# Journal of the Physical Society of Japan 15, 573-581
# Crystal structure of monoclinic tungsten oxide at room temperature
# 
# CIF by ICSD-for-WWW,  Copyright 2003 FIZ-Karlsruhe & A.W.Hewat (hewat@ill.fr)
# NOT TO BE PUBLISHED IN ANY FORM. See http://icsd.ill.fr/icsd/conditions.html
###############################################################################

data_17003-ICSD
_database_code_ICSD                17003
_audit_creation_date               1986-09-25
_chemical_name_systematic
'Tungsten oxide'
_chemical_formula_structural       
'W O3'
_chemical_formula_sum              
'O3 W1'
_publ_section_title                
'O3 W1'
loop_
_citation_id
_citation_journal_abbrev
_citation_year
_citation_journal_volume
_citation_page_first
_citation_page_last
_citation_journal_id_ASTM
primary 'Journal of the Physical Society of Japan' 1960 15 573 581 JUPSAU
loop_
_publ_author_name
Tanisaki, S.
_cell_length_a                     7.3
_cell_length_b                     7.53
_cell_length_c                     7.68
_cell_angle_alpha                  90.
_cell_angle_beta                   90.9
_cell_angle_gamma                  90.
_cell_volume                       422.111
_cell_formula_units_Z              8.000
_symmetry_space_group_name_H-M     'P 1 21/n 1'
_symmetry_Int_Tables_number        14
_refine_ls_R_factor_all            0.0802
loop_
_symmetry_equiv_pos_site_id
_symmetry_equiv_pos_as_xyz
   1   '-x+1/2, y+1/2, -z+1/2'
   2   '-x, -y, -z'
   3   'x+1/2, -y+1/2, z+1/2'
   4   'x, y, z'
loop_
_atom_type_symbol
_atom_type_oxidation_number
W6+     6.
O2-     -2.
loop_
_atom_site_label
_atom_site_type_symbol
_atom_site_symmetry_multiplicity
_atom_site_Wyckoff_symbol
_atom_site_fract_x
_atom_site_fract_y
_atom_site_fract_z
_atom_site_B_iso_or_equiv
_atom_site_occupancy
W1 W6+ 4 e 0.252 0.026 0.285 0. 1.
W2 W6+ 4 e 0.247 0.033 0.781 0. 1.
O1 O2- 4 e 0 0.025 0.22 0. 1.
O2 O2- 4 e 0 0.475 0.22 0. 1.
O3 O2- 4 e 0.29 0.29 0.265 0. 1.
O4 O2- 4 e 0.21 0.29 0.735 0. 1.
O5 O2- 4 e 0.28 0.04 0.03 0. 1.
O6 O2- 4 e 0.28 0.49 -.03 0. 1.
#End of data_17003-ICSD

###############################################################################
# McColm, I.J.;Steadman, R.;Wilson, S.J. (1978)
# Journal of Solid State Chemistry 23, 33-42
# Iron-promoted phases in the tungsten-oxygen system
# 
# CIF by ICSD-for-WWW,  Copyright 2003 FIZ-Karlsruhe & A.W.Hewat (hewat@ill.fr)
# NOT TO BE PUBLISHED IN ANY FORM. See http://icsd.ill.fr/icsd/conditions.html
###############################################################################

data_1509-ICSD
_database_code_ICSD                1509
_audit_creation_date               1980-01-01
_chemical_name_systematic
'Tungsten oxide (5/14)'
_chemical_formula_structural       
'W5 O14'
_chemical_formula_sum              
'O14 W5'
_publ_section_title                
'O14 W5'
loop_
_citation_id
_citation_journal_abbrev
_citation_year
_citation_journal_volume
_citation_page_first
_citation_page_last
_citation_journal_id_ASTM
primary 'Journal of Solid State Chemistry' 1978 23 33 42 JSSCBI
loop_
_publ_author_name
McColm, I.J.;Steadman, R.;Wilson, S.J.
_cell_length_a                     23.33(1)
_cell_length_b                     23.33(1)
_cell_length_c                     3.797(1)
_cell_angle_alpha                  90.
_cell_angle_beta                   90.
_cell_angle_gamma                  90.
_cell_volume                       2066.6604
_cell_formula_units_Z              8.000
_symmetry_space_group_name_H-M     'P -4 21 m'
_symmetry_Int_Tables_number        113
_refine_ls_R_factor_all            0.1072
loop_
_symmetry_equiv_pos_site_id
_symmetry_equiv_pos_as_xyz
   1   '-y+1/2, -x+1/2, z'
   2   'y, -x, -z'
   3   'y+1/2, x+1/2, z'
   4   '-y, x, -z'
   5   'x+1/2, -y+1/2, -z'
   6   '-x, -y, z'
   7   '-x+1/2, y+1/2, -z'
   8   'x, y, z'
loop_
_atom_type_symbol
_atom_type_oxidation_number
W5+     5.6
O2-     -2.
loop_
_atom_site_label
_atom_site_type_symbol
_atom_site_symmetry_multiplicity
_atom_site_Wyckoff_symbol
_atom_site_fract_x
_atom_site_fract_y
_atom_site_fract_z
_atom_site_B_iso_or_equiv
_atom_site_occupancy
W1 W5+ 4 e 0.2013(3) 0.7013(3) 0.50(1) 0.0049(19) 1.
W2 W5+ 4 e 0.0992(3) 0.5992(3) 0.492(11) 0.0058(20) 1.
W3 W5+ 8 f 0.0468(3) 0.3400(3) 0.514(10) 0.0088(15) 1.
W4 W5+ 8 f 0.0808(3) 0.0810(3) 0.483(7) 0.0092(14) 1.
W5 W5+ 8 f 0.1576(3) 0.2213(2) 0.487(8) 0.0055(15) 1.
W6 W5+ 8 f 0.2397(3) 0.0747(3) 0.484(7) 0.0085(15) 1.
O1 O2- 4 e 0.201(4) 0.701(4) -.03(9) 0.0057(18) 1.
O2 O2- 4 e 0.103(4) 0.603(4) -.08(11) 0.0057(18) 1.
O3 O2- 8 f 0.049(3) 0.341(4) -.13(10) 0.0057(18) 1.
O4 O2- 8 f 0.083(4) 0.083(4) -.03(6) 0.0057(18) 1.
O5 O2- 8 f 0.160(4) 0.222(3) -.03(10) 0.0057(18) 1.
O6 O2- 8 f 0.240(4) 0.079(4) -.11(5) 0.0057(18) 1.
O7 O2- 4 e 0.401(4) 0.901(4) 0.59(6) 0.0057(18) 1.
O8 O2- 4 e 0.272(4) 0.772(4) 0.43(7) 0.0057(18) 1.
O9 O2- 8 f 0.263(4) 0.002(4) 0.50(4) 0.0057(18) 1.
O10 O2- 8 f 0.012(3) 0.083(4) 0.58(6) 0.0057(18) 1.
O11 O2- 8 f 0.094(3) 0.145(3) 0.57(7) 0.0057(18) 1.
O12 O2- 8 f 0.097(4) 0.282(4) 0.55(6) 0.0057(18) 1.
O13 O2- 8 f 0.176(4) 0.052(4) 0.45(5) 0.0057(18) 1.
O14 O2- 8 f 0.198(5) 0.184(4) 0.82(4) 0.0057(18) 1.
O15 O2- 8 f 0.314(4) 0.094(4) 0.46(5) 0.0057(18) 1.
O16 O2- 8 f 0.384(3) 0.032(3) 0.61(10) 0.0057(18) 1.
#End of data_1509-ICSD

