##############################################################################
#                                                                            #
# This CIF contains the data in a paper accepted for publication in Acta     #
# Crystallographica Section B. It has been peer reviewed under the auspices  #
# of the IUCr Commission on Journals.                                        #
#                                                                            #
# Full details of the Crystallographic Information File format               #
# are given in the paper "The Crystallographic Information File (CIF):       #
# a New Standard Archive File for Crystallography" by S. R. Hall, F. H.      #
# Allen and I. D. Brown [Acta Cryst. (1991), A47, 655-685].                  #
#                                                                            #
# The current version of the core CIF dictionary may be obtained from        #
# ftp://ftp.iucr.org/pub/cif_core.dic. The current version number is 2.4.    #
#                                                                            #
# Software is freely available for graphical display of the structure(s) in  #
# this CIF.  For information consult the CIF home page http://www.iucr.org/  #
# cif/home.html                                                              #
#                                                                            #
# This file may be used for bona fide research purposes within the           #
# scientific community so long as proper attribution is given to the journal # 
# article from which it was obtained.                                        #
#                                                                            #
##############################################################################

data_L-Phase
_journal_date_recd_electronic     2008-11-10
_journal_date_accepted     2008-12-12
_journal_name_full     'Acta Crystallographica, Section B'
_journal_year     2009
_journal_volume     65
_journal_issue      2
_journal_page_first     0
_journal_page_last     0
_journal_paper_category     FA
_journal_coeditor_code     WH5004
_chemical_formula_sum     "Mn0.6 O7 V2 Zn1.4"
_chemical_formula_weight     338.37
_symmetry_cell_setting     monoclinic
_symmetry_space_group_name_H-M     "C 1 2/m 1"
_cell_length_a     10.37908(11)
_cell_length_b     8.55572(9)
_cell_length_c     9.35394(10)
_cell_angle_alpha     90
_cell_angle_beta     98.4667(9)
_cell_angle_gamma     90
_cell_volume     821.582(15)
_cell_formula_units_Z     6
_cell_measurement_reflns_used     959
_cell_measurement_theta_min     4.0
_cell_measurement_theta_max     78.997
_cell_measurement_temperature     298
_exptl_crystal_density_diffrn     4.10
_diffrn_radiation_type     'Cu K\a'
_diffrn_radiation_wavelength     1.5418
_diffrn_measurement_device_type     'Bruker D8'
_refine_ls_R_factor_all     0.032
_refine_ls_goodness_of_fit_all     1.15
_refine_ls_number_parameters     53
_refine_ls_shift/su_max     0.001
loop_
    _atom_site_type_symbol
    _atom_site_label
    _atom_site_fract_x
    _atom_site_fract_y
    _atom_site_fract_z
    _atom_site_adp_type
    _atom_site_occupancy
    Zn Zn1 0.3463(2)   0.8183(2)   0.20169(19) Biso 0.7
    Zn Zn2 0 0.8210(4)   0.5 Biso 0.7
    V V1 0.0496(3)   0 0.1870(4)   Biso 1
    V V2 0.3732(3)   0 0.8855(3)   Biso 1
    V V3 0.6933(4)   0 0.4888(4)   Biso 1
    O O1a 0.3838(10)  0 0.6859(10) Biso 1
    O O1b 0 0 0 Biso 1
    O O2a 0.0017(7)   0.1663(10)  0.7449(7)   Biso 1
    O O2b 0.2812(8)   0.1537(9)   0.8906(7)   Biso 1
    O O2c 0.3497(8)   0.1652(9)   0.4243(7)   Biso 1
    O O3a 0.1349(11) 0 0.5033(11) Biso 1
    O O3b 0.4402(13) 0 0.1005(11) Biso 1
    O O3c 0.2153(13) 0 0.2048(11) Biso 1
    Mn Mn1 0.3463(2)   0.8183(2)   0.20169(19) Biso 0.3
    Mn Mn2 0 0.8210(4)   0.5 Biso 0.3
loop_
    _atom_site_aniso_label
    _atom_site_aniso_U_11
    _atom_site_aniso_U_22
    _atom_site_aniso_U_33
    _atom_site_aniso_U_12
    _atom_site_aniso_U_13
    _atom_site_aniso_U_23
    Zn1 0.00306 0.00306 0.00306 0.000000 0.000000 0.000000
    Zn2 0.00306 0.00306 0.00306 0.000000 0.000000 0.000000
    V1 0.00013 0.00013 0.00013 0.000000 0.000000 0.000000
    V2 0.00013 0.00013 0.00013 0.000000 0.000000 0.000000
    V3 0.00013 0.00013 0.00013 0.000000 0.000000 0.000000
    O1a 0.00210 0.00210 0.00210 0.000000 0.000000 0.000000
    O1b 0.00210 0.00210 0.00210 0.000000 0.000000 0.000000
    O2a 0.00210 0.00210 0.00210 0.000000 0.000000 0.000000
    O2b 0.00210 0.00210 0.00210 0.000000 0.000000 0.000000
    O2c 0.00210 0.00210 0.00210 0.000000 0.000000 0.000000
    O3a 0.00210 0.00210 0.00210 0.000000 0.000000 0.000000
    O3b 0.00210 0.00210 0.00210 0.000000 0.000000 0.000000
    O3c 0.00210 0.00210 0.00210 0.000000 0.000000 0.000000
    Mn1 0.00306 0.00306 0.00306 0.000000 0.000000 0.000000
    Mn2 0.00306 0.00306 0.00306 0.000000 0.000000 0.000000
loop_
    _geom_bond_atom_site_label_1
    _geom_bond_atom_site_label_2
    _geom_bond_site_symmetry_1
    _geom_bond_site_symmetry_2
    _geom_bond_distance
    _geom_bond_publ_flag
    Zn1 O2b . 6_556 2.035(8)   N
    Zn1 O2a . 6_556 2.049(8)   N
    Zn1 O3c . 1_565 2.068(9)   N
    Zn1 O2c . 4_565 2.082(7)   N
    Zn1 O3b . 1_565 2.130(9)   N
    Zn2 O3a . 1_565 2.073(8)   N
    Zn2 O3a . 2_566 2.073(8)   N
    Zn2 O2c . 5_455 2.094(8)   N
    Zn2 O2c . 6_556 2.094(8)   N
    Zn2 O2a . 3_566 2.291(7)   N
    Zn2 O2a . 4_565 2.291(7)   N
    V1 O2a . 2_556 1.677(8)   N
    V1 O2a . 3_556 1.677(8)   N
    V1 O3c . 1_555 1.704(14) N
    V1 O1b . 1_555 1.74948 N
    V2 O2b . 1_555 1.630(8)   N
    V2 O2b . 4_555 1.630(8)   N
    V2 O1a . 1_555 1.887(10) N
    V2 O3b . 2_656 1.922(13) N
    V2 O3b . 1_556 2.028(10)  N
    V3 O1a . 2_656 1.710(9)   N
    V3 O2c . 2_656 1.722(8)   N
    V3 O2c . 3_656 1.722(8)   N
    V3 O3a . 2_656 1.774(12) N
loop_
    _geom_angle_atom_site_label_1
    _geom_angle_atom_site_label_2
    _geom_angle_atom_site_label_3
    _geom_angle_site_symmetry_1
    _geom_angle_site_symmetry_2
    _geom_angle_site_symmetry_3
    _geom_angle
    _geom_angle_publ_flag
    O2a Zn1 O2b 6_556 . 6_556 95.4(2)   N
    O3c Zn1 O2a 1_565 . 6_556 163.3(3)   N
    O3c Zn1 O2b 1_565 . 6_556 98.0(2)   N
    O2c Zn1 O3c 4_565 . 1_565 81.3(3)   N
    O2c Zn1 O2a 4_565 . 6_556 84.3(2)   N
    O2c Zn1 O2b 4_565 . 6_556 112.7(2)   N
    O3b Zn1 O2c 1_565 . 4_565 117.0(3)   N
    O3b Zn1 O3c 1_565 . 1_565 78.6(4)   N
    O3b Zn1 O2a 1_565 . 6_556 100.7(4)   N
    O3b Zn1 O2b 1_565 . 6_556 128.9(3)   N
    O3a Zn2 O3a 2_566 . 1_565 84.7(5)   N
    O2c Zn2 O3a 5_455 . 2_566 89.9(2)   N
    O2c Zn2 O3a 5_455 . 1_565 160.6(3)   N
    O2c Zn2 O2c 6_556 . 5_455 100.9(5)   N
    O2c Zn2 O3a 6_556 . 2_566 160.6(3)   N
    O2c Zn2 O3a 6_556 . 1_565 89.9(2)   N
    O2a Zn2 O2c 3_566 . 6_556 105.3(3)   N
    O2a Zn2 O2c 3_566 . 5_455 78.3(3)   N
    O2a Zn2 O3a 3_566 . 2_566 92.5(3)   N
    O2a Zn2 O3a 3_566 . 1_565 83.4(3)   N
    O2a Zn2 O2a 4_565 . 3_566 174.6(4)   N
    O2a Zn2 O2c 4_565 . 6_556 78.3(3)   N
    O2a Zn2 O2c 4_565 . 5_455 105.3(3)   N
    O2a Zn2 O3a 4_565 . 2_566 83.4(3)   N
    O2a Zn2 O3a 4_565 . 1_565 92.5(3)   N
    O2a V1 O2a 3_556 . 2_556 116.1(6)   N
    O3c V1 O2a 1_555 . 3_556 109.6(3)   N
    O3c V1 O2a 1_555 . 2_556 109.6(3)   N
    O1b V1 O3c 1_555 . 1_555 104.0(4)   N
    O1b V1 O2a 1_555 . 3_556 108.5(2)   N
    O1b V1 O2a 1_555 . 2_556 108.5(2)   N
    O2b V2 O2b 4_555 . 1_555 107.6(6)   N
    O1a V2 O2b 1_555 . 4_555 98.5(2)   N
    O1a V2 O2b 1_555 . 1_555 98.5(2)   N
    O3b V2 O1a 2_656 . 1_555 82.1(4)   N
    O3b V2 O2b 2_656 . 4_555 125.9(3)   N
    O3b V2 O2b 2_656 . 1_555 125.9(3)   N
    O3b V2 O3b 1_556 . 2_656 74.8(6)   N
    O3b V2 O1a 1_556 . 1_555 156.9(5)   N
    O3b V2 O2b 1_556 . 4_555 95.1(3)   N
    O3b V2 O2b 1_556 . 1_555 95.1(3)   N
    O2c V3 O1a 2_656 . 2_656 109.5(2)   N
    O2c V3 O2c 3_656 . 2_656 110.4(5)   N
    O2c V3 O1a 3_656 . 2_656 109.5(2)   N
    O3a V3 O2c 2_656 . 3_656 108.0(3)   N
    O3a V3 O2c 2_656 . 2_656 108.0(3)   N
    O3a V3 O1a 2_656 . 2_656 111.4(5)   N
    V2 O1a V3 1_555 . 2_656 149.1(6)   N
    V1 O1b V1 1_555 . 2_555 180.000 N

