###############################################################################
# Braekken, H. (1932)
# Kongelige Norske Videnskapers Selskab, Forhandlinger 5, 42-42
# Die Kristallstruktur von Chromtribromid
# 
# CIF by ICSD-for-WWW,  Copyright 2003 FIZ-Karlsruhe & A.W.Hewat (hewat@ill.fr)
# NOT TO BE PUBLISHED IN ANY FORM. See http://icsd.ill.fr/icsd/conditions.html
###############################################################################

data_24768-ICSD
_database_code_ICSD                24768
_audit_creation_date               1980-01-01
_chemical_name_systematic
'Chromium bromide'
_chemical_formula_structural       
'Cr Br3'
_chemical_formula_sum              
'Br3 Cr1'
_publ_section_title                
'Br3 Cr1'
loop_
_citation_id
_citation_journal_abbrev
_citation_year
_citation_journal_volume
_citation_page_first
_citation_page_last
_citation_journal_id_ASTM
primary 'Kongelige Norske Videnskapers Selskab, F' 1932 5 42 42 KNSFA2
loop_
_publ_author_name
Braekken, H.
_cell_length_a                     6.26
_cell_length_b                     6.26
_cell_length_c                     18.2
_cell_angle_alpha                  90.
_cell_angle_beta                   90.
_cell_angle_gamma                  120.
_cell_volume                       617.6604
_cell_formula_units_Z              6.000
_symmetry_space_group_name_H-M     'P 3'
_symmetry_Int_Tables_number        143
loop_
_symmetry_equiv_pos_site_id
_symmetry_equiv_pos_as_xyz
   1   '-x+y, -x, z'
   2   '-y, x-y, z'
   3   'x, y, z'
loop_
_atom_type_symbol
_atom_type_oxidation_number
Cr3+     3.
Br1-     -1.
loop_
_atom_site_label
_atom_site_type_symbol
_atom_site_symmetry_multiplicity
_atom_site_Wyckoff_symbol
_atom_site_fract_x
_atom_site_fract_y
_atom_site_fract_z
_atom_site_B_iso_or_equiv
_atom_site_occupancy
Cr1 Cr3+ 1 a 0 0 0 0. 1.
Cr2 Cr3+ 1 a 0 0 0.6667 0. 1.
Cr3 Cr3+ 1 b 0.3333 0.6667 0.3333 0. 1.
Cr4 Cr3+ 1 b 0.3333 0.6667 0 0. 1.
Cr5 Cr3+ 1 c 0.6667 0.3333 0.6667 0. 1.
Cr6 Cr3+ 1 c 0.6667 0.3333 0.3333 0. 1.
Br1 Br1- 3 d 0.3333 0.3333 -.078 0. 1.
Br2 Br1- 3 d 0.6667 0.6667 0.078 0. 1.
Br3 Br1- 3 d 0.3333 0.3333 0.255 0. 1.
Br4 Br1- 3 d 0.6667 0.6667 0.411 0. 1.
Br5 Br1- 3 d 0.3333 0.3333 0.589 0. 1.
Br6 Br1- 3 d 0.6667 0.6667 0.745 0. 1.
#End of data_24768-ICSD

###############################################################################
# Tracy, J.W.;Gregory, N.W.;Lingafelter, E.C. (1962)
# Acta Crystallographica (1,1948-23,1967) 15, 672-674
# Crystal structure of chromium(II) bromide
# 
# CIF by ICSD-for-WWW,  Copyright 2003 FIZ-Karlsruhe & A.W.Hewat (hewat@ill.fr)
# NOT TO BE PUBLISHED IN ANY FORM. See http://icsd.ill.fr/icsd/conditions.html
###############################################################################

data_23903-ICSD
_database_code_ICSD                23903
_audit_creation_date               1980-01-01
_chemical_name_systematic
'Chromium(II) bromide'
_chemical_formula_structural       
'Cr Br2'
_chemical_formula_sum              
'Br2 Cr1'
_publ_section_title                
'Br2 Cr1'
loop_
_citation_id
_citation_journal_abbrev
_citation_year
_citation_journal_volume
_citation_page_first
_citation_page_last
_citation_journal_id_ASTM
primary 'Acta Crystallographica (1,1948-23,1967)' 1962 15 672 674 ACCRA9
loop_
_publ_author_name
Tracy, J.W.;Gregory, N.W.;Lingafelter, E.C.
_cell_length_a                     7.114(5)
_cell_length_b                     3.649(5)
_cell_length_c                     6.217(5)
_cell_angle_alpha                  90.
_cell_angle_beta                   93.88
_cell_angle_gamma                  90.
_cell_volume                       161.021
_cell_formula_units_Z              2.000
_symmetry_space_group_name_H-M     'C 1 2/m 1'
_symmetry_Int_Tables_number        12
_refine_ls_R_factor_all            0.1054
loop_
_symmetry_equiv_pos_site_id
_symmetry_equiv_pos_as_xyz
   1   '-x, y, -z'
   2   '-x, -y, -z'
   3   'x, -y, z'
   4   'x, y, z'
   5   '-x+1/2, y+1/2, -z'
   6   '-x+1/2, -y+1/2, -z'
   7   'x+1/2, -y+1/2, z'
   8   'x+1/2, y+1/2, z'
loop_
_atom_type_symbol
_atom_type_oxidation_number
Cr2+     2.
Br1-     -1.
loop_
_atom_site_label
_atom_site_type_symbol
_atom_site_symmetry_multiplicity
_atom_site_Wyckoff_symbol
_atom_site_fract_x
_atom_site_fract_y
_atom_site_fract_z
_atom_site_B_iso_or_equiv
_atom_site_occupancy
Cr1 Cr2+ 2 a 0 0 0 1.2 1.
Br1 Br1- 4 i 0.6489 0 0.2409 0.8 1.
#End of data_23903-ICSD

