###############################################################################
# Shorafa, H.;Seppelt, K. (2009)
# Zeitschrift fuer Anorg. und Allgemeine Chemie 635, 112-114
# The structures of Cr F5 and Cr F5*Sb F5
# 
# CIF by ICSD-for-WWW,  Copyright 2003 FIZ-Karlsruhe & A.W.Hewat (hewat@ill.fr)
# NOT TO BE PUBLISHED IN ANY FORM. See http://icsd.ill.fr/icsd/conditions.html
###############################################################################

data_419661-ICSD
_database_code_ICSD                419661
_audit_creation_date               2009-08-01
_chemical_name_systematic
'Chromium(V) fluoride'
_chemical_formula_structural       
'Cr F5'
_chemical_formula_sum              
'Cr1 F5'
_publ_section_title                
'Cr1 F5'
loop_
_citation_id
_citation_journal_abbrev
_citation_year
_citation_journal_volume
_citation_page_first
_citation_page_last
_citation_journal_id_ASTM
primary 'Zeitschrift fuer Anorg. und Allgemeine C' 2009 635 112 114 ZAACAB
loop_
_publ_author_name
Shorafa, H.;Seppelt, K.
_cell_length_a                     7.8299(19)
_cell_length_b                     7.534(2)
_cell_length_c                     5.5181(14)
_cell_angle_alpha                  90.00
_cell_angle_beta                   90.00
_cell_angle_gamma                  90.00
_cell_volume                       325.5104
_cell_formula_units_Z              4.000
_symmetry_space_group_name_H-M     'P b c m'
_symmetry_Int_Tables_number        57
_refine_ls_R_factor_all            0.0163
loop_
_symmetry_equiv_pos_site_id
_symmetry_equiv_pos_as_xyz
   1   'x, -y+1/2, z+1/2'
   2   '-x, y+1/2, z'
   3   'x, y, -z+1/2'
   4   '-x, -y, -z'
   5   '-x, y+1/2, -z+1/2'
   6   'x, -y+1/2, -z'
   7   '-x, -y, z+1/2'
   8   'x, y, z'
loop_
_atom_type_symbol
_atom_type_oxidation_number
Cr5+     5.
F1-     -1.
loop_
_atom_site_label
_atom_site_type_symbol
_atom_site_symmetry_multiplicity
_atom_site_Wyckoff_symbol
_atom_site_fract_x
_atom_site_fract_y
_atom_site_fract_z
_atom_site_B_iso_or_equiv
_atom_site_occupancy
Cr1 Cr5+ 4 d 0.25767(3) 0.58593(4) 0.2500 0.01635(13) 1
F1 F1- 4 c 0.33614(13) 0.7500 0.0000 0.0195(2) 1
F2 F1- 4 d 0.08146(13) 0.71650(17) 0.2500 0.0251(3) 1
F3 F1- 4 d 0.46601(15) 0.52816(17) 0.2500 0.0268(3) 1
F4 F1- 8 e 0.19273(14) 0.44530(12) 0.02681(18) 0.0353(2) 1
loop_
_atom_site_aniso_label
_atom_site_aniso_type_symbol
_atom_site_aniso_U_11
_atom_site_aniso_U_22
_atom_site_aniso_U_33
_atom_site_aniso_U_12
_atom_site_aniso_U_13
_atom_site_aniso_U_23
Cr1 Cr5+ 0.02127(18) 0.01560(18) 0.01217(17) -0.00171(9) 0.000 0.000
F1 F1- 0.0207(4) 0.0245(5) 0.0133(5) 0.000 0.000 0.0046(4)
F2 F1- 0.0173(5) 0.0394(7) 0.0185(5) 0.0019(4) 0.000 0.000
F3 F1- 0.0297(6) 0.0316(6) 0.0191(5) 0.0146(5) 0.000 0.000
F4 F1- 0.0508(5) 0.0281(4) 0.0271(4) -0.0112(4) -0.0040(4) -0.0098(4)
#End of data_419661-ICSD

###############################################################################
# Jorgensen, J.E.;Marshall, W.G.;Smith, R.I. (2004)
# Acta Crystallographica B (39,1983-) 60, 669-673
# On the compression mechanism of Cr F3
# 
# CIF by ICSD-for-WWW,  Copyright 2003 FIZ-Karlsruhe & A.W.Hewat (hewat@ill.fr)
# NOT TO BE PUBLISHED IN ANY FORM. See http://icsd.ill.fr/icsd/conditions.html
###############################################################################

data_59973-ICSD
_database_code_ICSD                59973
_audit_creation_date               2005-10-01
_chemical_name_systematic
'Chromium fluoride'
_chemical_formula_structural       
'Cr F3'
_chemical_formula_sum              
'Cr1 F3'
_publ_section_title                
'Cr1 F3'
loop_
_citation_id
_citation_journal_abbrev
_citation_year
_citation_journal_volume
_citation_page_first
_citation_page_last
_citation_journal_id_ASTM
primary 'Acta Crystallographica B (39,1983-)' 2004 60 669 673 ASBSDK
loop_
_publ_author_name
Jorgensen, J.E.;Marshall, W.G.;Smith, R.I.
_cell_length_a                     4.6265(3)
_cell_length_b                     4.6265(3)
_cell_length_c                     13.1630(10)
_cell_angle_alpha                  90.
_cell_angle_beta                   90.
_cell_angle_gamma                  120.
_cell_volume                       244.001
_cell_formula_units_Z              6.000
_symmetry_space_group_name_H-M     'R -3 c'
_symmetry_Int_Tables_number        167
_refine_ls_R_factor_all            0.0532
loop_
_symmetry_equiv_pos_site_id
_symmetry_equiv_pos_as_xyz
   1   'x-y, -y, -z+1/2'
   2   '-x, -x+y, -z+1/2'
   3   'y, x, -z+1/2'
   4   'x-y, x, -z'
   5   'y, -x+y, -z'
   6   '-x, -y, -z'
   7   '-x+y, y, z+1/2'
   8   'x, x-y, z+1/2'
   9   '-y, -x, z+1/2'
  10   '-x+y, -x, z'
  11   '-y, x-y, z'
  12   'x, y, z'
  13   'x-y+2/3, -y+1/3, -z+5/6'
  14   '-x+2/3, -x+y+1/3, -z+5/6'
  15   'y+2/3, x+1/3, -z+5/6'
  16   'x-y+2/3, x+1/3, -z+1/3'
  17   'y+2/3, -x+y+1/3, -z+1/3'
  18   '-x+2/3, -y+1/3, -z+1/3'
  19   '-x+y+2/3, y+1/3, z+5/6'
  20   'x+2/3, x-y+1/3, z+5/6'
  21   '-y+2/3, -x+1/3, z+5/6'
  22   '-x+y+2/3, -x+1/3, z+1/3'
  23   '-y+2/3, x-y+1/3, z+1/3'
  24   'x+2/3, y+1/3, z+1/3'
  25   'x-y+1/3, -y+2/3, -z+1/6'
  26   '-x+1/3, -x+y+2/3, -z+1/6'
  27   'y+1/3, x+2/3, -z+1/6'
  28   'x-y+1/3, x+2/3, -z+2/3'
  29   'y+1/3, -x+y+2/3, -z+2/3'
  30   '-x+1/3, -y+2/3, -z+2/3'
  31   '-x+y+1/3, y+2/3, z+1/6'
  32   'x+1/3, x-y+2/3, z+1/6'
  33   '-y+1/3, -x+2/3, z+1/6'
  34   '-x+y+1/3, -x+2/3, z+2/3'
  35   '-y+1/3, x-y+2/3, z+2/3'
  36   'x+1/3, y+2/3, z+2/3'
loop_
_atom_type_symbol
_atom_type_oxidation_number
Cr3+     3.
F1-     -1.
loop_
_atom_site_label
_atom_site_type_symbol
_atom_site_symmetry_multiplicity
_atom_site_Wyckoff_symbol
_atom_site_fract_x
_atom_site_fract_y
_atom_site_fract_z
_atom_site_B_iso_or_equiv
_atom_site_occupancy
Cr1 Cr3+ 6 b 0 0 0 .001(1) 1
F1 F1- 18 e .659(1) 0 .25 .0021(4) 1
#End of data_59973-ICSD

###############################################################################
# Jorgensen, J.E.;Marshall, W.G.;Smith, R.I. (2004)
# Acta Crystallographica B (39,1983-) 60, 669-673
# On the compression mechanism of Cr F3
# 
# CIF by ICSD-for-WWW,  Copyright 2003 FIZ-Karlsruhe & A.W.Hewat (hewat@ill.fr)
# NOT TO BE PUBLISHED IN ANY FORM. See http://icsd.ill.fr/icsd/conditions.html
###############################################################################

data_59972-ICSD
_database_code_ICSD                59972
_audit_creation_date               2005-10-01
_chemical_name_systematic
'Chromium fluoride'
_chemical_formula_structural       
'Cr F3'
_chemical_formula_sum              
'Cr1 F3'
_publ_section_title                
'Cr1 F3'
loop_
_citation_id
_citation_journal_abbrev
_citation_year
_citation_journal_volume
_citation_page_first
_citation_page_last
_citation_journal_id_ASTM
primary 'Acta Crystallographica B (39,1983-)' 2004 60 669 673 ASBSDK
loop_
_publ_author_name
Jorgensen, J.E.;Marshall, W.G.;Smith, R.I.
_cell_length_a                     4.6382(2)
_cell_length_b                     4.6382(2)
_cell_length_c                     13.1720(10)
_cell_angle_alpha                  90.
_cell_angle_beta                   90.
_cell_angle_gamma                  120.
_cell_volume                       245.4005
_cell_formula_units_Z              6.000
_symmetry_space_group_name_H-M     'R -3 c'
_symmetry_Int_Tables_number        167
_refine_ls_R_factor_all            0.0578
loop_
_symmetry_equiv_pos_site_id
_symmetry_equiv_pos_as_xyz
   1   'x-y, -y, -z+1/2'
   2   '-x, -x+y, -z+1/2'
   3   'y, x, -z+1/2'
   4   'x-y, x, -z'
   5   'y, -x+y, -z'
   6   '-x, -y, -z'
   7   '-x+y, y, z+1/2'
   8   'x, x-y, z+1/2'
   9   '-y, -x, z+1/2'
  10   '-x+y, -x, z'
  11   '-y, x-y, z'
  12   'x, y, z'
  13   'x-y+2/3, -y+1/3, -z+5/6'
  14   '-x+2/3, -x+y+1/3, -z+5/6'
  15   'y+2/3, x+1/3, -z+5/6'
  16   'x-y+2/3, x+1/3, -z+1/3'
  17   'y+2/3, -x+y+1/3, -z+1/3'
  18   '-x+2/3, -y+1/3, -z+1/3'
  19   '-x+y+2/3, y+1/3, z+5/6'
  20   'x+2/3, x-y+1/3, z+5/6'
  21   '-y+2/3, -x+1/3, z+5/6'
  22   '-x+y+2/3, -x+1/3, z+1/3'
  23   '-y+2/3, x-y+1/3, z+1/3'
  24   'x+2/3, y+1/3, z+1/3'
  25   'x-y+1/3, -y+2/3, -z+1/6'
  26   '-x+1/3, -x+y+2/3, -z+1/6'
  27   'y+1/3, x+2/3, -z+1/6'
  28   'x-y+1/3, x+2/3, -z+2/3'
  29   'y+1/3, -x+y+2/3, -z+2/3'
  30   '-x+1/3, -y+2/3, -z+2/3'
  31   '-x+y+1/3, y+2/3, z+1/6'
  32   'x+1/3, x-y+2/3, z+1/6'
  33   '-y+1/3, -x+2/3, z+1/6'
  34   '-x+y+1/3, -x+2/3, z+2/3'
  35   '-y+1/3, x-y+2/3, z+2/3'
  36   'x+1/3, y+2/3, z+2/3'
loop_
_atom_type_symbol
_atom_type_oxidation_number
Cr3+     3.
F1-     -1.
loop_
_atom_site_label
_atom_site_type_symbol
_atom_site_symmetry_multiplicity
_atom_site_Wyckoff_symbol
_atom_site_fract_x
_atom_site_fract_y
_atom_site_fract_z
_atom_site_B_iso_or_equiv
_atom_site_occupancy
Cr1 Cr3+ 6 b 0 0 0 .0010(8) 1
F1 F1- 18 e .660(1) 0 .25 .0044(4) 1
#End of data_59972-ICSD

###############################################################################
# Jorgensen, J.E.;Marshall, W.G.;Smith, R.I. (2004)
# Acta Crystallographica B (39,1983-) 60, 669-673
# On the compression mechanism of Cr F3
# 
# CIF by ICSD-for-WWW,  Copyright 2003 FIZ-Karlsruhe & A.W.Hewat (hewat@ill.fr)
# NOT TO BE PUBLISHED IN ANY FORM. See http://icsd.ill.fr/icsd/conditions.html
###############################################################################

data_59971-ICSD
_database_code_ICSD                59971
_audit_creation_date               2005-10-01
_chemical_name_systematic
'Chromium fluoride'
_chemical_formula_structural       
'Cr F3'
_chemical_formula_sum              
'Cr1 F3'
_publ_section_title                
'Cr1 F3'
loop_
_citation_id
_citation_journal_abbrev
_citation_year
_citation_journal_volume
_citation_page_first
_citation_page_last
_citation_journal_id_ASTM
primary 'Acta Crystallographica B (39,1983-)' 2004 60 669 673 ASBSDK
loop_
_publ_author_name
Jorgensen, J.E.;Marshall, W.G.;Smith, R.I.
_cell_length_a                     4.6639(2)
_cell_length_b                     4.6639(2)
_cell_length_c                     13.1920(10)
_cell_angle_alpha                  90.
_cell_angle_beta                   90.
_cell_angle_gamma                  120.
_cell_volume                       248.5001
_cell_formula_units_Z              6.000
_symmetry_space_group_name_H-M     'R -3 c'
_symmetry_Int_Tables_number        167
_refine_ls_R_factor_all            0.0523
loop_
_symmetry_equiv_pos_site_id
_symmetry_equiv_pos_as_xyz
   1   'x-y, -y, -z+1/2'
   2   '-x, -x+y, -z+1/2'
   3   'y, x, -z+1/2'
   4   'x-y, x, -z'
   5   'y, -x+y, -z'
   6   '-x, -y, -z'
   7   '-x+y, y, z+1/2'
   8   'x, x-y, z+1/2'
   9   '-y, -x, z+1/2'
  10   '-x+y, -x, z'
  11   '-y, x-y, z'
  12   'x, y, z'
  13   'x-y+2/3, -y+1/3, -z+5/6'
  14   '-x+2/3, -x+y+1/3, -z+5/6'
  15   'y+2/3, x+1/3, -z+5/6'
  16   'x-y+2/3, x+1/3, -z+1/3'
  17   'y+2/3, -x+y+1/3, -z+1/3'
  18   '-x+2/3, -y+1/3, -z+1/3'
  19   '-x+y+2/3, y+1/3, z+5/6'
  20   'x+2/3, x-y+1/3, z+5/6'
  21   '-y+2/3, -x+1/3, z+5/6'
  22   '-x+y+2/3, -x+1/3, z+1/3'
  23   '-y+2/3, x-y+1/3, z+1/3'
  24   'x+2/3, y+1/3, z+1/3'
  25   'x-y+1/3, -y+2/3, -z+1/6'
  26   '-x+1/3, -x+y+2/3, -z+1/6'
  27   'y+1/3, x+2/3, -z+1/6'
  28   'x-y+1/3, x+2/3, -z+2/3'
  29   'y+1/3, -x+y+2/3, -z+2/3'
  30   '-x+1/3, -y+2/3, -z+2/3'
  31   '-x+y+1/3, y+2/3, z+1/6'
  32   'x+1/3, x-y+2/3, z+1/6'
  33   '-y+1/3, -x+2/3, z+1/6'
  34   '-x+y+1/3, -x+2/3, z+2/3'
  35   '-y+1/3, x-y+2/3, z+2/3'
  36   'x+1/3, y+2/3, z+2/3'
loop_
_atom_type_symbol
_atom_type_oxidation_number
Cr3+     3.
F1-     -1.
loop_
_atom_site_label
_atom_site_type_symbol
_atom_site_symmetry_multiplicity
_atom_site_Wyckoff_symbol
_atom_site_fract_x
_atom_site_fract_y
_atom_site_fract_z
_atom_site_B_iso_or_equiv
_atom_site_occupancy
Cr1 Cr3+ 6 b 0 0 0 .0017(7) 1
F1 F1- 18 e .658(1) 0 .25 .0058(3) 1
#End of data_59971-ICSD

###############################################################################
# Jorgensen, J.E.;Marshall, W.G.;Smith, R.I. (2004)
# Acta Crystallographica B (39,1983-) 60, 669-673
# On the compression mechanism of Cr F3
# 
# CIF by ICSD-for-WWW,  Copyright 2003 FIZ-Karlsruhe & A.W.Hewat (hewat@ill.fr)
# NOT TO BE PUBLISHED IN ANY FORM. See http://icsd.ill.fr/icsd/conditions.html
###############################################################################

data_59970-ICSD
_database_code_ICSD                59970
_audit_creation_date               2005-10-01
_chemical_name_systematic
'Chromium fluoride'
_chemical_formula_structural       
'Cr F3'
_chemical_formula_sum              
'Cr1 F3'
_publ_section_title                
'Cr1 F3'
loop_
_citation_id
_citation_journal_abbrev
_citation_year
_citation_journal_volume
_citation_page_first
_citation_page_last
_citation_journal_id_ASTM
primary 'Acta Crystallographica B (39,1983-)' 2004 60 669 673 ASBSDK
loop_
_publ_author_name
Jorgensen, J.E.;Marshall, W.G.;Smith, R.I.
_cell_length_a                     4.7189(2)
_cell_length_b                     4.7189(2)
_cell_length_c                     13.2190(10)
_cell_angle_alpha                  90.
_cell_angle_beta                   90.
_cell_angle_gamma                  120.
_cell_volume                       254.9208
_cell_formula_units_Z              6.000
_symmetry_space_group_name_H-M     'R -3 c'
_symmetry_Int_Tables_number        167
_refine_ls_R_factor_all            0.056
loop_
_symmetry_equiv_pos_site_id
_symmetry_equiv_pos_as_xyz
   1   'x-y, -y, -z+1/2'
   2   '-x, -x+y, -z+1/2'
   3   'y, x, -z+1/2'
   4   'x-y, x, -z'
   5   'y, -x+y, -z'
   6   '-x, -y, -z'
   7   '-x+y, y, z+1/2'
   8   'x, x-y, z+1/2'
   9   '-y, -x, z+1/2'
  10   '-x+y, -x, z'
  11   '-y, x-y, z'
  12   'x, y, z'
  13   'x-y+2/3, -y+1/3, -z+5/6'
  14   '-x+2/3, -x+y+1/3, -z+5/6'
  15   'y+2/3, x+1/3, -z+5/6'
  16   'x-y+2/3, x+1/3, -z+1/3'
  17   'y+2/3, -x+y+1/3, -z+1/3'
  18   '-x+2/3, -y+1/3, -z+1/3'
  19   '-x+y+2/3, y+1/3, z+5/6'
  20   'x+2/3, x-y+1/3, z+5/6'
  21   '-y+2/3, -x+1/3, z+5/6'
  22   '-x+y+2/3, -x+1/3, z+1/3'
  23   '-y+2/3, x-y+1/3, z+1/3'
  24   'x+2/3, y+1/3, z+1/3'
  25   'x-y+1/3, -y+2/3, -z+1/6'
  26   '-x+1/3, -x+y+2/3, -z+1/6'
  27   'y+1/3, x+2/3, -z+1/6'
  28   'x-y+1/3, x+2/3, -z+2/3'
  29   'y+1/3, -x+y+2/3, -z+2/3'
  30   '-x+1/3, -y+2/3, -z+2/3'
  31   '-x+y+1/3, y+2/3, z+1/6'
  32   'x+1/3, x-y+2/3, z+1/6'
  33   '-y+1/3, -x+2/3, z+1/6'
  34   '-x+y+1/3, -x+2/3, z+2/3'
  35   '-y+1/3, x-y+2/3, z+2/3'
  36   'x+1/3, y+2/3, z+2/3'
loop_
_atom_type_symbol
_atom_type_oxidation_number
Cr3+     3.
F1-     -1.
loop_
_atom_site_label
_atom_site_type_symbol
_atom_site_symmetry_multiplicity
_atom_site_Wyckoff_symbol
_atom_site_fract_x
_atom_site_fract_y
_atom_site_fract_z
_atom_site_B_iso_or_equiv
_atom_site_occupancy
Cr1 Cr3+ 6 b 0 0 0 0.0018(9) 1.
F1 F1- 18 e .6514(8) 0 .25 .0063(4) 1
#End of data_59970-ICSD

###############################################################################
# Jorgensen, J.E.;Marshall, W.G.;Smith, R.I. (2004)
# Acta Crystallographica B (39,1983-) 60, 669-673
# On the compression mechanism of Cr F3
# 
# CIF by ICSD-for-WWW,  Copyright 2003 FIZ-Karlsruhe & A.W.Hewat (hewat@ill.fr)
# NOT TO BE PUBLISHED IN ANY FORM. See http://icsd.ill.fr/icsd/conditions.html
###############################################################################

data_59969-ICSD
_database_code_ICSD                59969
_audit_creation_date               2005-10-01
_chemical_name_systematic
'Chromium fluoride'
_chemical_formula_structural       
'Cr F3'
_chemical_formula_sum              
'Cr1 F3'
_publ_section_title                
'Cr1 F3'
loop_
_citation_id
_citation_journal_abbrev
_citation_year
_citation_journal_volume
_citation_page_first
_citation_page_last
_citation_journal_id_ASTM
primary 'Acta Crystallographica B (39,1983-)' 2004 60 669 673 ASBSDK
loop_
_publ_author_name
Jorgensen, J.E.;Marshall, W.G.;Smith, R.I.
_cell_length_a                     4.7860(3)
_cell_length_b                     4.7860(3)
_cell_length_c                     13.2370(10)
_cell_angle_alpha                  90.
_cell_angle_beta                   90.
_cell_angle_gamma                  120.
_cell_volume                       262.5807
_cell_formula_units_Z              6.000
_symmetry_space_group_name_H-M     'R -3 c'
_symmetry_Int_Tables_number        167
_refine_ls_R_factor_all            0.0604
loop_
_symmetry_equiv_pos_site_id
_symmetry_equiv_pos_as_xyz
   1   'x-y, -y, -z+1/2'
   2   '-x, -x+y, -z+1/2'
   3   'y, x, -z+1/2'
   4   'x-y, x, -z'
   5   'y, -x+y, -z'
   6   '-x, -y, -z'
   7   '-x+y, y, z+1/2'
   8   'x, x-y, z+1/2'
   9   '-y, -x, z+1/2'
  10   '-x+y, -x, z'
  11   '-y, x-y, z'
  12   'x, y, z'
  13   'x-y+2/3, -y+1/3, -z+5/6'
  14   '-x+2/3, -x+y+1/3, -z+5/6'
  15   'y+2/3, x+1/3, -z+5/6'
  16   'x-y+2/3, x+1/3, -z+1/3'
  17   'y+2/3, -x+y+1/3, -z+1/3'
  18   '-x+2/3, -y+1/3, -z+1/3'
  19   '-x+y+2/3, y+1/3, z+5/6'
  20   'x+2/3, x-y+1/3, z+5/6'
  21   '-y+2/3, -x+1/3, z+5/6'
  22   '-x+y+2/3, -x+1/3, z+1/3'
  23   '-y+2/3, x-y+1/3, z+1/3'
  24   'x+2/3, y+1/3, z+1/3'
  25   'x-y+1/3, -y+2/3, -z+1/6'
  26   '-x+1/3, -x+y+2/3, -z+1/6'
  27   'y+1/3, x+2/3, -z+1/6'
  28   'x-y+1/3, x+2/3, -z+2/3'
  29   'y+1/3, -x+y+2/3, -z+2/3'
  30   '-x+1/3, -y+2/3, -z+2/3'
  31   '-x+y+1/3, y+2/3, z+1/6'
  32   'x+1/3, x-y+2/3, z+1/6'
  33   '-y+1/3, -x+2/3, z+1/6'
  34   '-x+y+1/3, -x+2/3, z+2/3'
  35   '-y+1/3, x-y+2/3, z+2/3'
  36   'x+1/3, y+2/3, z+2/3'
loop_
_atom_type_symbol
_atom_type_oxidation_number
Cr3+     3.
F1-     -1.
loop_
_atom_site_label
_atom_site_type_symbol
_atom_site_symmetry_multiplicity
_atom_site_Wyckoff_symbol
_atom_site_fract_x
_atom_site_fract_y
_atom_site_fract_z
_atom_site_B_iso_or_equiv
_atom_site_occupancy
Cr1 Cr3+ 6 b 0 0 0 0.0030(10) 1.
F1 F1- 18 e .6419(6) 0 .25 .0061(5) 1
#End of data_59969-ICSD

###############################################################################
# Jorgensen, J.E.;Marshall, W.G.;Smith, R.I. (2004)
# Acta Crystallographica B (39,1983-) 60, 669-673
# On the compression mechanism of Cr F3
# 
# CIF by ICSD-for-WWW,  Copyright 2003 FIZ-Karlsruhe & A.W.Hewat (hewat@ill.fr)
# NOT TO BE PUBLISHED IN ANY FORM. See http://icsd.ill.fr/icsd/conditions.html
###############################################################################

data_59968-ICSD
_database_code_ICSD                59968
_audit_creation_date               2005-10-01
_chemical_name_systematic
'Chromium fluoride'
_chemical_formula_structural       
'Cr F3'
_chemical_formula_sum              
'Cr1 F3'
_publ_section_title                
'Cr1 F3'
loop_
_citation_id
_citation_journal_abbrev
_citation_year
_citation_journal_volume
_citation_page_first
_citation_page_last
_citation_journal_id_ASTM
primary 'Acta Crystallographica B (39,1983-)' 2004 60 669 673 ASBSDK
loop_
_publ_author_name
Jorgensen, J.E.;Marshall, W.G.;Smith, R.I.
_cell_length_a                     4.8593(2)
_cell_length_b                     4.8593(2)
_cell_length_c                     13.2329(9)
_cell_angle_alpha                  90.
_cell_angle_beta                   90.
_cell_angle_gamma                  120.
_cell_volume                       270.6005
_cell_formula_units_Z              6.000
_symmetry_space_group_name_H-M     'R -3 c'
_symmetry_Int_Tables_number        167
_refine_ls_R_factor_all            0.0433
loop_
_symmetry_equiv_pos_site_id
_symmetry_equiv_pos_as_xyz
   1   'x-y, -y, -z+1/2'
   2   '-x, -x+y, -z+1/2'
   3   'y, x, -z+1/2'
   4   'x-y, x, -z'
   5   'y, -x+y, -z'
   6   '-x, -y, -z'
   7   '-x+y, y, z+1/2'
   8   'x, x-y, z+1/2'
   9   '-y, -x, z+1/2'
  10   '-x+y, -x, z'
  11   '-y, x-y, z'
  12   'x, y, z'
  13   'x-y+2/3, -y+1/3, -z+5/6'
  14   '-x+2/3, -x+y+1/3, -z+5/6'
  15   'y+2/3, x+1/3, -z+5/6'
  16   'x-y+2/3, x+1/3, -z+1/3'
  17   'y+2/3, -x+y+1/3, -z+1/3'
  18   '-x+2/3, -y+1/3, -z+1/3'
  19   '-x+y+2/3, y+1/3, z+5/6'
  20   'x+2/3, x-y+1/3, z+5/6'
  21   '-y+2/3, -x+1/3, z+5/6'
  22   '-x+y+2/3, -x+1/3, z+1/3'
  23   '-y+2/3, x-y+1/3, z+1/3'
  24   'x+2/3, y+1/3, z+1/3'
  25   'x-y+1/3, -y+2/3, -z+1/6'
  26   '-x+1/3, -x+y+2/3, -z+1/6'
  27   'y+1/3, x+2/3, -z+1/6'
  28   'x-y+1/3, x+2/3, -z+2/3'
  29   'y+1/3, -x+y+2/3, -z+2/3'
  30   '-x+1/3, -y+2/3, -z+2/3'
  31   '-x+y+1/3, y+2/3, z+1/6'
  32   'x+1/3, x-y+2/3, z+1/6'
  33   '-y+1/3, -x+2/3, z+1/6'
  34   '-x+y+1/3, -x+2/3, z+2/3'
  35   '-y+1/3, x-y+2/3, z+2/3'
  36   'x+1/3, y+2/3, z+2/3'
loop_
_atom_type_symbol
_atom_type_oxidation_number
Cr3+     3.
F1-     -1.
loop_
_atom_site_label
_atom_site_type_symbol
_atom_site_symmetry_multiplicity
_atom_site_Wyckoff_symbol
_atom_site_fract_x
_atom_site_fract_y
_atom_site_fract_z
_atom_site_B_iso_or_equiv
_atom_site_occupancy
Cr1 Cr3+ 6 b 0 0 0 0.0021(7) 1.
F1 F1- 18 e .6338(3) 0 .25 .0063(4) 1
#End of data_59968-ICSD

###############################################################################
# Jorgensen, J.E.;Marshall, W.G.;Smith, R.I. (2004)
# Acta Crystallographica B (39,1983-) 60, 669-673
# On the compression mechanism of Cr F3
# 
# CIF by ICSD-for-WWW,  Copyright 2003 FIZ-Karlsruhe & A.W.Hewat (hewat@ill.fr)
# NOT TO BE PUBLISHED IN ANY FORM. See http://icsd.ill.fr/icsd/conditions.html
###############################################################################

data_59967-ICSD
_database_code_ICSD                59967
_audit_creation_date               2005-10-01
_chemical_name_systematic
'Chromium fluoride'
_chemical_formula_structural       
'Cr F3'
_chemical_formula_sum              
'Cr1 F3'
_publ_section_title                
'Cr1 F3'
loop_
_citation_id
_citation_journal_abbrev
_citation_year
_citation_journal_volume
_citation_page_first
_citation_page_last
_citation_journal_id_ASTM
primary 'Acta Crystallographica B (39,1983-)' 2004 60 669 673 ASBSDK
loop_
_publ_author_name
Jorgensen, J.E.;Marshall, W.G.;Smith, R.I.
_cell_length_a                     4.9106(2)
_cell_length_b                     4.9106(2)
_cell_length_c                     13.2286(9)
_cell_angle_alpha                  90.
_cell_angle_beta                   90.
_cell_angle_gamma                  120.
_cell_volume                       276.2508
_cell_formula_units_Z              6.000
_symmetry_space_group_name_H-M     'R -3 c'
_symmetry_Int_Tables_number        167
_refine_ls_R_factor_all            0.0532
loop_
_symmetry_equiv_pos_site_id
_symmetry_equiv_pos_as_xyz
   1   'x-y, -y, -z+1/2'
   2   '-x, -x+y, -z+1/2'
   3   'y, x, -z+1/2'
   4   'x-y, x, -z'
   5   'y, -x+y, -z'
   6   '-x, -y, -z'
   7   '-x+y, y, z+1/2'
   8   'x, x-y, z+1/2'
   9   '-y, -x, z+1/2'
  10   '-x+y, -x, z'
  11   '-y, x-y, z'
  12   'x, y, z'
  13   'x-y+2/3, -y+1/3, -z+5/6'
  14   '-x+2/3, -x+y+1/3, -z+5/6'
  15   'y+2/3, x+1/3, -z+5/6'
  16   'x-y+2/3, x+1/3, -z+1/3'
  17   'y+2/3, -x+y+1/3, -z+1/3'
  18   '-x+2/3, -y+1/3, -z+1/3'
  19   '-x+y+2/3, y+1/3, z+5/6'
  20   'x+2/3, x-y+1/3, z+5/6'
  21   '-y+2/3, -x+1/3, z+5/6'
  22   '-x+y+2/3, -x+1/3, z+1/3'
  23   '-y+2/3, x-y+1/3, z+1/3'
  24   'x+2/3, y+1/3, z+1/3'
  25   'x-y+1/3, -y+2/3, -z+1/6'
  26   '-x+1/3, -x+y+2/3, -z+1/6'
  27   'y+1/3, x+2/3, -z+1/6'
  28   'x-y+1/3, x+2/3, -z+2/3'
  29   'y+1/3, -x+y+2/3, -z+2/3'
  30   '-x+1/3, -y+2/3, -z+2/3'
  31   '-x+y+1/3, y+2/3, z+1/6'
  32   'x+1/3, x-y+2/3, z+1/6'
  33   '-y+1/3, -x+2/3, z+1/6'
  34   '-x+y+1/3, -x+2/3, z+2/3'
  35   '-y+1/3, x-y+2/3, z+2/3'
  36   'x+1/3, y+2/3, z+2/3'
loop_
_atom_type_symbol
_atom_type_oxidation_number
Cr3+     3.
F1-     -1.
loop_
_atom_site_label
_atom_site_type_symbol
_atom_site_symmetry_multiplicity
_atom_site_Wyckoff_symbol
_atom_site_fract_x
_atom_site_fract_y
_atom_site_fract_z
_atom_site_B_iso_or_equiv
_atom_site_occupancy
Cr1 Cr3+ 6 b 0 0 0 0.0008(7) 1.
F1 F1- 18 e .6271(3) 0 .25 .0063(4) 1
#End of data_59967-ICSD

###############################################################################
# Jorgensen, J.E.;Marshall, W.G.;Smith, R.I. (2004)
# Acta Crystallographica B (39,1983-) 60, 669-673
# On the compression mechanism of Cr F3
# 
# CIF by ICSD-for-WWW,  Copyright 2003 FIZ-Karlsruhe & A.W.Hewat (hewat@ill.fr)
# NOT TO BE PUBLISHED IN ANY FORM. See http://icsd.ill.fr/icsd/conditions.html
###############################################################################

data_59966-ICSD
_database_code_ICSD                59966
_audit_creation_date               2005-10-01
_chemical_name_systematic
'Chromium fluoride'
_chemical_formula_structural       
'Cr F3'
_chemical_formula_sum              
'Cr1 F3'
_publ_section_title                
'Cr1 F3'
loop_
_citation_id
_citation_journal_abbrev
_citation_year
_citation_journal_volume
_citation_page_first
_citation_page_last
_citation_journal_id_ASTM
primary 'Acta Crystallographica B (39,1983-)' 2004 60 669 673 ASBSDK
loop_
_publ_author_name
Jorgensen, J.E.;Marshall, W.G.;Smith, R.I.
_cell_length_a                     4.9863(2)
_cell_length_b                     4.9863(2)
_cell_length_c                     13.2142(7)
_cell_angle_alpha                  90.
_cell_angle_beta                   90.
_cell_angle_gamma                  120.
_cell_volume                       284.5308
_cell_formula_units_Z              6.000
_symmetry_space_group_name_H-M     'R -3 c'
_symmetry_Int_Tables_number        167
_refine_ls_R_factor_all            0.0451
loop_
_symmetry_equiv_pos_site_id
_symmetry_equiv_pos_as_xyz
   1   'x-y, -y, -z+1/2'
   2   '-x, -x+y, -z+1/2'
   3   'y, x, -z+1/2'
   4   'x-y, x, -z'
   5   'y, -x+y, -z'
   6   '-x, -y, -z'
   7   '-x+y, y, z+1/2'
   8   'x, x-y, z+1/2'
   9   '-y, -x, z+1/2'
  10   '-x+y, -x, z'
  11   '-y, x-y, z'
  12   'x, y, z'
  13   'x-y+2/3, -y+1/3, -z+5/6'
  14   '-x+2/3, -x+y+1/3, -z+5/6'
  15   'y+2/3, x+1/3, -z+5/6'
  16   'x-y+2/3, x+1/3, -z+1/3'
  17   'y+2/3, -x+y+1/3, -z+1/3'
  18   '-x+2/3, -y+1/3, -z+1/3'
  19   '-x+y+2/3, y+1/3, z+5/6'
  20   'x+2/3, x-y+1/3, z+5/6'
  21   '-y+2/3, -x+1/3, z+5/6'
  22   '-x+y+2/3, -x+1/3, z+1/3'
  23   '-y+2/3, x-y+1/3, z+1/3'
  24   'x+2/3, y+1/3, z+1/3'
  25   'x-y+1/3, -y+2/3, -z+1/6'
  26   '-x+1/3, -x+y+2/3, -z+1/6'
  27   'y+1/3, x+2/3, -z+1/6'
  28   'x-y+1/3, x+2/3, -z+2/3'
  29   'y+1/3, -x+y+2/3, -z+2/3'
  30   '-x+1/3, -y+2/3, -z+2/3'
  31   '-x+y+1/3, y+2/3, z+1/6'
  32   'x+1/3, x-y+2/3, z+1/6'
  33   '-y+1/3, -x+2/3, z+1/6'
  34   '-x+y+1/3, -x+2/3, z+2/3'
  35   '-y+1/3, x-y+2/3, z+2/3'
  36   'x+1/3, y+2/3, z+2/3'
loop_
_atom_type_symbol
_atom_type_oxidation_number
Cr3+     3.
F1-     -1.
loop_
_atom_site_label
_atom_site_type_symbol
_atom_site_symmetry_multiplicity
_atom_site_Wyckoff_symbol
_atom_site_fract_x
_atom_site_fract_y
_atom_site_fract_z
_atom_site_B_iso_or_equiv
_atom_site_occupancy
Cr1 Cr3+ 6 b 0 0 0 0.0032(6) 1
F1 F1- 18 e .6153(3) 0 .25 .0063(3) 1
#End of data_59966-ICSD

###############################################################################
# Steinfink, H.;Burns, J. (1964)
# Acta Crystallographica (1,1948-23,1967) 17, 823-826
# The Crystal Structure of Cr2 F5
# 
# CIF by ICSD-for-WWW,  Copyright 2003 FIZ-Karlsruhe & A.W.Hewat (hewat@ill.fr)
# NOT TO BE PUBLISHED IN ANY FORM. See http://icsd.ill.fr/icsd/conditions.html
###############################################################################

data_14135-ICSD
_database_code_ICSD                14135
_audit_creation_date               1986-09-30
_chemical_name_systematic
'Chromium fluoride (2/5)'
_chemical_formula_structural       
'Cr2 F5'
_chemical_formula_sum              
'Cr2 F5'
_publ_section_title                
'Cr2 F5'
loop_
_citation_id
_citation_journal_abbrev
_citation_year
_citation_journal_volume
_citation_page_first
_citation_page_last
_citation_journal_id_ASTM
primary 'Acta Crystallographica (1,1948-23,1967)' 1964 17 823 826 ACCRA9
loop_
_publ_author_name
Steinfink, H.;Burns, J.
_cell_length_a                     7.773(5)
_cell_length_b                     7.54(5)
_cell_length_c                     7.44(5)
_cell_angle_alpha                  90.
_cell_angle_beta                   124.25(1)
_cell_angle_gamma                  90.
_cell_volume                       360.4304
_cell_formula_units_Z              4.000
_symmetry_space_group_name_H-M     'C 1 2/c 1'
_symmetry_Int_Tables_number        15
_refine_ls_R_factor_all            0.0514
loop_
_symmetry_equiv_pos_site_id
_symmetry_equiv_pos_as_xyz
   1   'x, -y, z+1/2'
   2   '-x, -y, -z'
   3   '-x, y, -z+1/2'
   4   'x, y, z'
   5   'x+1/2, -y+1/2, z+1/2'
   6   '-x+1/2, -y+1/2, -z'
   7   '-x+1/2, y+1/2, -z+1/2'
   8   'x+1/2, y+1/2, z'
loop_
_atom_type_symbol
_atom_type_oxidation_number
Cr3+     3.
Cr2+     2.
F1-     -1.
loop_
_atom_site_label
_atom_site_type_symbol
_atom_site_symmetry_multiplicity
_atom_site_Wyckoff_symbol
_atom_site_fract_x
_atom_site_fract_y
_atom_site_fract_z
_atom_site_B_iso_or_equiv
_atom_site_occupancy
Cr1 Cr3+ 4 a 0 0 0 0. 1.
Cr2 Cr2+ 4 b 0 0.5 0 0. 1.
F1 F1- 4 e 0 0.0475(7) 0.25 0. 1.
F2 F1- 8 f 0.2955(5) -.0192(5) 0.1762(6) 0. 1.
F3 F1- 8 f 0.0207(6) 0.2448(4) -.0304(6) 0. 1.
loop_
_atom_site_aniso_label
_atom_site_aniso_type_symbol
_atom_site_aniso_Beta_11
_atom_site_aniso_Beta_22
_atom_site_aniso_Beta_33
_atom_site_aniso_Beta_12
_atom_site_aniso_Beta_13
_atom_site_aniso_Beta_23
Cr1 Cr3+ 0.0035(3) 0.0029(3) 0.0033(3) -.0001(5) 0.0029(5) 0.0005(5)
Cr2 Cr2+ 0.0054(3) 0.0024(3) 0.0048(4) -.0002(5) 0.0036(5) -.0004(5)
F1 F1- 0.0125(13) 0.0085(9) 0.0071(13) 0 0.0134(22) 0
F2 F1- 0.0040(6) 0.0075(7) 0.0075(8) 0.0016(11) 0.0031(12) 0.0033(12)
F3 F1- 0.00136(10) 0.0027(5) 0.0120(9) -.0012(11) 0.0146(15) 0.0008(12)
#End of data_14135-ICSD

###############################################################################
# Benkic, P.;Mazej, Z.;Zemva, B. (2002)
# Angew. Chem. Int. ed. 41, 1398-1399
# A new crystal modification of chromium tetrafluoride: beta-(Cr F4)
# 
# CIF by ICSD-for-WWW,  Copyright 2003 FIZ-Karlsruhe & A.W.Hewat (hewat@ill.fr)
# NOT TO BE PUBLISHED IN ANY FORM. See http://icsd.ill.fr/icsd/conditions.html
###############################################################################

data_412032-ICSD
_database_code_ICSD                412032
_audit_creation_date               2003-10-01
_chemical_name_systematic
'Chromium(IV) fluoride - beta'
_chemical_formula_structural       
'Cr F4'
_chemical_formula_sum              
'Cr1 F4'
_publ_section_title                
'Cr1 F4'
loop_
_citation_id
_citation_journal_abbrev
_citation_year
_citation_journal_volume
_citation_page_first
_citation_page_last
_citation_journal_id_ASTM
primary 'Angew. Chem. Int. ed.' 2002 41 1398 1399 ACIEF5
loop_
_publ_author_name
Benkic, P.;Mazej, Z.;Zemva, B.
_cell_length_a                     14.570(9)
_cell_length_b                     9.720(6)
_cell_length_c                     7.190(4)
_cell_angle_alpha                  90.
_cell_angle_beta                   102.68(2)
_cell_angle_gamma                  90.
_cell_volume                       993.4203
_cell_formula_units_Z              16.000
_symmetry_space_group_name_H-M     'C 1 2/c 1'
_symmetry_Int_Tables_number        15
_refine_ls_R_factor_all            0.0226
loop_
_symmetry_equiv_pos_site_id
_symmetry_equiv_pos_as_xyz
   1   'x, -y, z+1/2'
   2   '-x, -y, -z'
   3   '-x, y, -z+1/2'
   4   'x, y, z'
   5   'x+1/2, -y+1/2, z+1/2'
   6   '-x+1/2, -y+1/2, -z'
   7   '-x+1/2, y+1/2, -z+1/2'
   8   'x+1/2, y+1/2, z'
loop_
_atom_type_symbol
_atom_type_oxidation_number
Cr4+     4.
F1-     -1.
loop_
_atom_site_label
_atom_site_type_symbol
_atom_site_symmetry_multiplicity
_atom_site_Wyckoff_symbol
_atom_site_fract_x
_atom_site_fract_y
_atom_site_fract_z
_atom_site_B_iso_or_equiv
_atom_site_occupancy
Cr1 Cr4+ 8 f 0.18730(2) 0.00178(3) 0.60755(5) 0.00798(13) 1.
Cr2 Cr4+ 8 f 0.00242(2) 0.25877(4) 0.49800(5) 0.00790(13) 1.
F1 F1- 8 f 0.06855(9) 0.09356(13) 0.59594(18) 0.0108(3) 1.
F2 F1- 8 f 0.10401(9) -.14455(13) 0.50147(19) 0.0116(3) 1.
F3 F1- 8 f 0.18193(9) 0.06162(14) 0.35417(18) 0.0124(3) 1.
F4 F1- 8 f 0.28047(10) -.10124(15) 0.6044(2) 0.0166(3) 1.
F5 F1- 8 f 0.24284(9) 0.14808(14) 0.6957(2) 0.0157(3) 1.
F6 F1- 4 e 0 0.31225(19) 0.75 0.0129(4) 1.
F7 F1- 4 e 0 0.19109(19) 0.25 0.0127(4) 1.
F8 F1- 8 f 0.10818(9) 0.33551(14) 0.5114(2) 0.0155(3) 1.
F9 F1- 8 f -.06850(9) 0.39150(14) 0.40771(19) 0.0155(3) 1.
loop_
_atom_site_aniso_label
_atom_site_aniso_type_symbol
_atom_site_aniso_U_11
_atom_site_aniso_U_22
_atom_site_aniso_U_33
_atom_site_aniso_U_12
_atom_site_aniso_U_13
_atom_site_aniso_U_23
Cr1 Cr4+ 0.0066(2) 0.0107(2) 0.0068(2) -0.00036(13) 0.00188(15) -0.00059(14)
Cr2 Cr4+ 0.0086(2) 0.0084(2) 0.0070(2) -0.00011(13) 0.00235(15) 0.00051(13)
F1 F1- 0.0095(6) 0.0118(6) 0.0112(7) 0.0018(5) 0.0024(5) 0.0008(5)
F2 F1- 0.0110(6) 0.0125(6) 0.0116(6) -0.0017(5) 0.0028(5) -0.0015(5)
F3 F1- 0.0148(7) 0.0152(7) 0.0077(7) -0.0007(6) 0.0037(5) -0.0002(5)
F4 F1- 0.0123(7) 0.0220(7) 0.0162(7) 0.0061(6) 0.0047(6) 0.0006(6)
F5 F1- 0.0151(7) 0.0169(7) 0.0141(7) -0.0056(6) 0.0010(5) -0.0033(6)
F6 F1- 0.0186(10) 0.0132(9) 0.0074(9) 0 0.0037(7) 0
F7 F1- 0.0164(10) 0.0148(9) 0.0075(9) 0 0.0038(7) 0
F8 F1- 0.0125(6) 0.0164(7) 0.0177(7) -0.0046(6) 0.0038(6) 0.0007(6)
F9 F1- 0.0169(7) 0.0135(7) 0.0153(7) 0.0034(6) 0.0018(6) 0.0024(6)
#End of data_412032-ICSD

###############################################################################
# Lacorre, P.;Ferey, G.;Pannetier, J. (1992)
# Journal of Solid State Chemistry 96, 227-236
# The magnetic structure of Cr2 F5
# 
# CIF by ICSD-for-WWW,  Copyright 2003 FIZ-Karlsruhe & A.W.Hewat (hewat@ill.fr)
# NOT TO BE PUBLISHED IN ANY FORM. See http://icsd.ill.fr/icsd/conditions.html
###############################################################################

data_80639-ICSD
_database_code_ICSD                80639
_audit_creation_date               1997-05-13
_chemical_name_systematic
'Chromium(II) chromium fluoride'
_chemical_formula_structural       
'Cr2 F5'
_chemical_formula_sum              
'Cr2 F5'
_publ_section_title                
'Cr2 F5'
loop_
_citation_id
_citation_journal_abbrev
_citation_year
_citation_journal_volume
_citation_page_first
_citation_page_last
_citation_journal_id_ASTM
primary 'Journal of Solid State Chemistry' 1992 96 227 236 JSSCBI
loop_
_publ_author_name
Lacorre, P.;Ferey, G.;Pannetier, J.
_cell_length_a                     7.7526(1)
_cell_length_b                     7.5228(1)
_cell_length_c                     7.4477(1)
_cell_angle_alpha                  90.
_cell_angle_beta                   124.081(1)
_cell_angle_gamma                  90.
_cell_volume                       359.761
_cell_formula_units_Z              4.000
_symmetry_space_group_name_H-M     'C 1 2/c 1'
_symmetry_Int_Tables_number        15
_refine_ls_R_factor_all            0.0479
loop_
_symmetry_equiv_pos_site_id
_symmetry_equiv_pos_as_xyz
   1   'x, -y, z+1/2'
   2   '-x, -y, -z'
   3   '-x, y, -z+1/2'
   4   'x, y, z'
   5   'x+1/2, -y+1/2, z+1/2'
   6   '-x+1/2, -y+1/2, -z'
   7   '-x+1/2, y+1/2, -z+1/2'
   8   'x+1/2, y+1/2, z'
loop_
_atom_type_symbol
_atom_type_oxidation_number
Cr3+     3.
Cr2+     2.
F1-     -1.
loop_
_atom_site_label
_atom_site_type_symbol
_atom_site_symmetry_multiplicity
_atom_site_Wyckoff_symbol
_atom_site_fract_x
_atom_site_fract_y
_atom_site_fract_z
_atom_site_B_iso_or_equiv
_atom_site_occupancy
Cr1 Cr3+ 4 a 0 0 0 0.21(6) 1.
Cr2 Cr2+ 4 b 0 0.5 0 0.19(7) 1.
F1 F1- 4 e 0 0.0530(3) 0.25 0.55(5) 1.
F2 F1- 8 f 0.2967(3) 0.9773(2) 0.1759(3) 0.33(4) 1.
F3 F1- 8 f 0.0235(3) 0.2454(3) 0.9667(3) 0.39(3) 1.
#End of data_80639-ICSD

###############################################################################
# Kraemer, O.;Mueller, B.G. (1995)
# Zeitschrift fuer Anorg. und Allgemeine Chemie 621, 1969-1972
# Zur Struktur des Chromtetrafluorid
# 
# CIF by ICSD-for-WWW,  Copyright 2003 FIZ-Karlsruhe & A.W.Hewat (hewat@ill.fr)
# NOT TO BE PUBLISHED IN ANY FORM. See http://icsd.ill.fr/icsd/conditions.html
###############################################################################

data_78778-ICSD
_database_code_ICSD                78778
_audit_creation_date               1999-11-30
_chemical_name_systematic
'Chromium(IV) fluoride'
_chemical_formula_structural       
'Cr F4'
_chemical_formula_sum              
'Cr1 F4'
_publ_section_title                
'Cr1 F4'
loop_
_citation_id
_citation_journal_abbrev
_citation_year
_citation_journal_volume
_citation_page_first
_citation_page_last
_citation_journal_id_ASTM
primary 'Zeitschrift fuer Anorg. und Allgemeine C' 1995 621 1969 1972 ZAACAB
loop_
_publ_author_name
Kraemer, O.;Mueller, B.G.
_cell_length_a                     8.296(1)
_cell_length_b                     8.296(1)
_cell_length_c                     3.737(1)
_cell_angle_alpha                  90.
_cell_angle_beta                   90.
_cell_angle_gamma                  90.
_cell_volume                       257.1906
_cell_formula_units_Z              4.000
_symmetry_space_group_name_H-M     'P 42/m n m'
_symmetry_Int_Tables_number        136
_refine_ls_R_factor_all            0.0352
loop_
_symmetry_equiv_pos_site_id
_symmetry_equiv_pos_as_xyz
   1   '-y+1/2, x+1/2, -z+1/2'
   2   'y+1/2, -x+1/2, -z+1/2'
   3   'y, x, -z'
   4   '-y, -x, -z'
   5   'y+1/2, -x+1/2, z+1/2'
   6   '-y+1/2, x+1/2, z+1/2'
   7   '-y, -x, z'
   8   'y, x, z'
   9   'x+1/2, -y+1/2, -z+1/2'
  10   '-x+1/2, y+1/2, -z+1/2'
  11   'x, y, -z'
  12   '-x, -y, -z'
  13   '-x+1/2, y+1/2, z+1/2'
  14   'x+1/2, -y+1/2, z+1/2'
  15   '-x, -y, z'
  16   'x, y, z'
loop_
_atom_type_symbol
_atom_type_oxidation_number
Cr4+     4.
F1-     -1.
loop_
_atom_site_label
_atom_site_type_symbol
_atom_site_symmetry_multiplicity
_atom_site_Wyckoff_symbol
_atom_site_fract_x
_atom_site_fract_y
_atom_site_fract_z
_atom_site_B_iso_or_equiv
_atom_site_occupancy
Cr1 Cr4+ 4 f 0.1326(1) 0.1326(1) 0 0. 1.
F1 F1- 4 g 0.0975(3) -.0975(3) 0 0. 1.
F2 F1- 4 g 0.3730(4) -.3730(4) 0 0. 1.
F3 F1- 8 i 0.1084(4) 0.3341(4) 0 0. 1.
loop_
_atom_site_aniso_label
_atom_site_aniso_type_symbol
_atom_site_aniso_U_11
_atom_site_aniso_U_22
_atom_site_aniso_U_33
_atom_site_aniso_U_12
_atom_site_aniso_U_13
_atom_site_aniso_U_23
Cr1 Cr4+ 0.0202(4) 0.0202(4) 0.0087(4) -.0054(4) 0 0
F1 F1- 0.0178(11) 0.0178(11) 0.0388(24) -.0014(14) 0 0
F2 F1- 0.0623(23) 0.0623(23) 0.0073(15) 0.0347(29) 0 0
F3 F1- 0.0393(19) 0.0210(15) 0.0488(20) -.0027(13) 0 0
#End of data_78778-ICSD

###############################################################################
# Jack, K.H.;Maitland, R. (1957)
# Proceedings of the Chemical Society (London) 1957, 232-232
# The crystal structure and interatomic bonding of chromous and chromic \
# fluorides
# 
# CIF by ICSD-for-WWW,  Copyright 2003 FIZ-Karlsruhe & A.W.Hewat (hewat@ill.fr)
# NOT TO BE PUBLISHED IN ANY FORM. See http://icsd.ill.fr/icsd/conditions.html
###############################################################################

data_31828-ICSD
_database_code_ICSD                31828
_audit_creation_date               1980-01-01
_chemical_name_systematic
'Chromium fluoride'
_chemical_formula_structural       
'Cr F3'
_chemical_formula_sum              
'Cr1 F3'
_publ_section_title                
'Cr1 F3'
loop_
_citation_id
_citation_journal_abbrev
_citation_year
_citation_journal_volume
_citation_page_first
_citation_page_last
_citation_journal_id_ASTM
primary 'Proceedings of the Chemical Society (Lon' 1957 1957 232 232 PCSLAW
loop_
_publ_author_name
Jack, K.H.;Maitland, R.
_cell_length_a                     5.2643(3)
_cell_length_b                     5.2643(3)
_cell_length_c                     5.2643(3)
_cell_angle_alpha                  56.563(5)
_cell_angle_beta                   56.563(5)
_cell_angle_gamma                  56.563(5)
_cell_volume                       94.9701
_cell_formula_units_Z              2.000
_symmetry_space_group_name_H-M     'R -3 c R'
_symmetry_Int_Tables_number        167
loop_
_symmetry_equiv_pos_site_id
_symmetry_equiv_pos_as_xyz
   1   '-x+1/2, -z+1/2, -y+1/2'
   2   '-z+1/2, -y+1/2, -x+1/2'
   3   '-y+1/2, -x+1/2, -z+1/2'
   4   'x+1/2, z+1/2, y+1/2'
   5   'z+1/2, y+1/2, x+1/2'
   6   'y+1/2, x+1/2, z+1/2'
   7   '-z, -x, -y'
   8   '-y, -z, -x'
   9   '-x, -y, -z'
  10   'z, x, y'
  11   'y, z, x'
  12   'x, y, z'
loop_
_atom_type_symbol
_atom_type_oxidation_number
Cr3+     3.
F1-     -1.
loop_
_atom_site_label
_atom_site_type_symbol
_atom_site_symmetry_multiplicity
_atom_site_Wyckoff_symbol
_atom_site_fract_x
_atom_site_fract_y
_atom_site_fract_z
_atom_site_B_iso_or_equiv
_atom_site_occupancy
Cr1 Cr3+ 2 b 0 0 0 0. 1.
F1 F1- 6 e -.136(3) 0.636(3) 0.25 0. 1.
#End of data_31828-ICSD

###############################################################################
# Jack, K.H.;Maitland, R. (1957)
# Proceedings of the Chemical Society (London) 1957, 232-232
# The crystal structure and interatomic bonding of chromous and chromic \
# fluorides
# 
# CIF by ICSD-for-WWW,  Copyright 2003 FIZ-Karlsruhe & A.W.Hewat (hewat@ill.fr)
# NOT TO BE PUBLISHED IN ANY FORM. See http://icsd.ill.fr/icsd/conditions.html
###############################################################################

data_31827-ICSD
_database_code_ICSD                31827
_audit_creation_date               1980-01-01
_chemical_name_systematic
'Chromium(II) fluoride'
_chemical_formula_structural       
'Cr F2'
_chemical_formula_sum              
'Cr1 F2'
_publ_section_title                
'Cr1 F2'
loop_
_citation_id
_citation_journal_abbrev
_citation_year
_citation_journal_volume
_citation_page_first
_citation_page_last
_citation_journal_id_ASTM
primary 'Proceedings of the Chemical Society (Lon' 1957 1957 232 232 PCSLAW
loop_
_publ_author_name
Jack, K.H.;Maitland, R.
_cell_length_a                     4.732(2)
_cell_length_b                     4.718(2)
_cell_length_c                     3.505(2)
_cell_angle_alpha                  90.
_cell_angle_beta                   96.52(5)
_cell_angle_gamma                  90.
_cell_volume                       77.7504
_cell_formula_units_Z              2.000
_symmetry_space_group_name_H-M     'P 1 21/n 1'
_symmetry_Int_Tables_number        14
loop_
_symmetry_equiv_pos_site_id
_symmetry_equiv_pos_as_xyz
   1   '-x+1/2, y+1/2, -z+1/2'
   2   '-x, -y, -z'
   3   'x+1/2, -y+1/2, z+1/2'
   4   'x, y, z'
loop_
_atom_type_symbol
_atom_type_oxidation_number
Cr2+     2.
F1-     -1.
loop_
_atom_site_label
_atom_site_type_symbol
_atom_site_symmetry_multiplicity
_atom_site_Wyckoff_symbol
_atom_site_fract_x
_atom_site_fract_y
_atom_site_fract_z
_atom_site_B_iso_or_equiv
_atom_site_occupancy
Cr1 Cr2+ 2 a 0 0 0 0. 1.
F1 F1- 4 e 0.297(3) 0.297(3) 0.044(3) 0. 1.
#End of data_31827-ICSD

###############################################################################
# Knox, K. (1960)
# Acta Crystallographica (1,1948-23,1967) 13, 507-508
# Structur of chromium(III) fluoride
# 
# CIF by ICSD-for-WWW,  Copyright 2003 FIZ-Karlsruhe & A.W.Hewat (hewat@ill.fr)
# NOT TO BE PUBLISHED IN ANY FORM. See http://icsd.ill.fr/icsd/conditions.html
###############################################################################

data_25828-ICSD
_database_code_ICSD                25828
_audit_creation_date               1986-09-30
_chemical_name_systematic
'Chromium fluoride'
_chemical_formula_structural       
'Cr F3'
_chemical_formula_sum              
'Cr1 F3'
_publ_section_title                
'Cr1 F3'
loop_
_citation_id
_citation_journal_abbrev
_citation_year
_citation_journal_volume
_citation_page_first
_citation_page_last
_citation_journal_id_ASTM
primary 'Acta Crystallographica (1,1948-23,1967)' 1960 13 507 508 ACCRA9
loop_
_publ_author_name
Knox, K.
_cell_length_a                     5.264(1)
_cell_length_b                     5.264(1)
_cell_length_c                     5.264(1)
_cell_angle_alpha                  56.609(6)
_cell_angle_beta                   56.609(6)
_cell_angle_gamma                  56.609(6)
_cell_volume                       95.061
_cell_formula_units_Z              2.000
_symmetry_space_group_name_H-M     'R -3 c R'
_symmetry_Int_Tables_number        167
loop_
_symmetry_equiv_pos_site_id
_symmetry_equiv_pos_as_xyz
   1   '-x+1/2, -z+1/2, -y+1/2'
   2   '-z+1/2, -y+1/2, -x+1/2'
   3   '-y+1/2, -x+1/2, -z+1/2'
   4   'x+1/2, z+1/2, y+1/2'
   5   'z+1/2, y+1/2, x+1/2'
   6   'y+1/2, x+1/2, z+1/2'
   7   '-z, -x, -y'
   8   '-y, -z, -x'
   9   '-x, -y, -z'
  10   'z, x, y'
  11   'y, z, x'
  12   'x, y, z'
loop_
_atom_type_symbol
_atom_type_oxidation_number
Cr3+     3.
F1-     -1.
loop_
_atom_site_label
_atom_site_type_symbol
_atom_site_symmetry_multiplicity
_atom_site_Wyckoff_symbol
_atom_site_fract_x
_atom_site_fract_y
_atom_site_fract_z
_atom_site_B_iso_or_equiv
_atom_site_occupancy
Cr1 Cr3+ 2 b 0 0 0 0.37(6) 1.
F1 F1- 6 e -.137(2) 0.637(2) 0.25 0.37(6) 1.
#End of data_25828-ICSD

