###############################################################################
# Narymbetov, B.Zh.;Agafonov, V.;Davydov, V.A.;Kashevarova, L.S.;\
# Rakhmanina, A.V.;Dzyabchenko, A.V.;Kulakov, V.I.;Ceolin, R. (2003)
# Chemical Physics Letters 367, 157-162
# The crystal structure of the 2D polymerized tetragonal phase of C60
# 
# CIF by ICSD-for-WWW,  Copyright 2003 FIZ-Karlsruhe & A.W.Hewat (hewat@ill.fr)
# NOT TO BE PUBLISHED IN ANY FORM. See http://icsd.ill.fr/icsd/conditions.html
###############################################################################

data_98143-ICSD
_database_code_ICSD                98143
_audit_creation_date               2004-10-01
_chemical_name_systematic
'Carbon (60) - 2D-polymerized'
_chemical_formula_structural       
'C60'
_chemical_formula_sum              
'C60'
_publ_section_title                
'C60'
loop_
_citation_id
_citation_journal_abbrev
_citation_year
_citation_journal_volume
_citation_page_first
_citation_page_last
_citation_journal_id_ASTM
primary 'Chemical Physics Letters' 2003 367 157 162 CHPLBC
loop_
_publ_author_name
Narymbetov, B.Zh.;Agafonov, V.;Davydov, V.A.;Kashevarova, L.S.;\
Rakhmanina, A.V.;Dzyabchenko, A.V.;Kulakov, V.I.;Ceolin, R.
_cell_length_a                     9.064(3)
_cell_length_b                     9.064(3)
_cell_length_c                     15.039(8)
_cell_angle_alpha                  90
_cell_angle_beta                   90
_cell_angle_gamma                  90
_cell_volume                       1235.5509
_cell_formula_units_Z              2.000
_symmetry_space_group_name_H-M     'P 42/m m c'
_symmetry_Int_Tables_number        131
_refine_ls_R_factor_all            0.0758
loop_
_symmetry_equiv_pos_site_id
_symmetry_equiv_pos_as_xyz
   1   'y, x, z+1/2'
   2   '-y, -x, z+1/2'
   3   '-x, y, z'
   4   'x, -y, z'
   5   '-y, x, -z+1/2'
   6   'y, -x, -z+1/2'
   7   'x, y, -z'
   8   '-x, -y, -z'
   9   '-y, -x, -z+1/2'
  10   'y, x, -z+1/2'
  11   'x, -y, -z'
  12   '-x, y, -z'
  13   'y, -x, z+1/2'
  14   '-y, x, z+1/2'
  15   '-x, -y, z'
  16   'x, y, z'
loop_
_atom_type_symbol
_atom_type_oxidation_number
C0+     0.
loop_
_atom_site_label
_atom_site_type_symbol
_atom_site_symmetry_multiplicity
_atom_site_Wyckoff_symbol
_atom_site_fract_x
_atom_site_fract_y
_atom_site_fract_z
_atom_site_B_iso_or_equiv
_atom_site_occupancy
C1 C0+ 8 q 0.4108(6) 0.4118(6) 0 0.020(2) 0.84(1)
C2 C0+ 8 p 0.5 0.0758(8) 0.2270(4) 0.022(2) 0.84(1)
C3 C0+ 8 o 0.0861(6) 0 0.0525(4) 0.021(2) 0.84(1)
C4 C0+ 8 p 0.5 0.417(3) 0.053(2) 0.020(2) 0.16(1)
C5 C0+ 8 o 0.425(4) 0 0.226(2) 0.022(2) 0.16(1)
C6 C0+ 8 q 0.090(3) 0.090(3) 0 0.021(2) 0.16(1)
C7 C0+ 16 r 0.1657(4) 0.1320(4) 0.0939(3) 0.028(1) 1.
C8 C0+ 16 r 0.2171(4) 0.2535(5) 0.0485(3) 0.033(1) 1.
C9 C0+ 16 r 0.3440(4) 0.3325(4) 0.0795(3) 0.030(1) 1.
C10 C0+ 16 r 0.4186(4) 0.2827(4) 0.1526(3) 0.032(1) 1.
C11 C0+ 16 r 0.3683(5) 0.1545(5) 0.1981(3) 0.031(1) 1.
C12 C0+ 16 r 0.2439(4) 0.0806(4) 0.1679(3) 0.030(1) 1.
#End of data_98143-ICSD

