###############################################################################
# Herrmann, K.W. (1956)
# Iowa State College Journal of Science 31, 439-440
# Some physical-metallurgical properties of scandium, yttrium, and the rare \
# earth metals
# 
# CIF by ICSD-for-WWW,  Copyright 2003 FIZ-Karlsruhe & A.W.Hewat (hewat@ill.fr)
# NOT TO BE PUBLISHED IN ANY FORM. See http://icsd.ill.fr/icsd/conditions.html
###############################################################################

data_641380-ICSD
_database_code_ICSD                641380
_audit_creation_date               2008-08-01
_chemical_name_systematic
'Lanthanum'
_chemical_formula_structural       
'La'
_chemical_formula_sum              
'La1'
_publ_section_title                
'La1'
loop_
_citation_id
_citation_journal_abbrev
_citation_year
_citation_journal_volume
_citation_page_first
_citation_page_last
_citation_journal_id_ASTM
primary 'Iowa State College Journal of Science' 1956 31 439 440 ISCJAF
loop_
_publ_author_name
Herrmann, K.W.
_cell_length_a                     3.770(2)
_cell_length_b                     3.770(2)
_cell_length_c                     12.159(8)
_cell_angle_alpha                  90.0
_cell_angle_beta                   90.0
_cell_angle_gamma                  120.0
_cell_volume                       149.6604
_cell_formula_units_Z              4.000
_symmetry_space_group_name_H-M     'P 63/m m c'
_symmetry_Int_Tables_number        194
loop_
_symmetry_equiv_pos_site_id
_symmetry_equiv_pos_as_xyz
   1   'x, x-y, -z+1/2'
   2   '-x+y, y, -z+1/2'
   3   '-y, -x, -z+1/2'
   4   '-x+y, -x, -z+1/2'
   5   '-y, x-y, -z+1/2'
   6   'x, y, -z+1/2'
   7   '-x, -x+y, z+1/2'
   8   'x-y, -y, z+1/2'
   9   'y, x, z+1/2'
  10   'x-y, x, z+1/2'
  11   'y, -x+y, z+1/2'
  12   '-x, -y, z+1/2'
  13   '-x, -x+y, -z'
  14   'x-y, -y, -z'
  15   'y, x, -z'
  16   'x-y, x, -z'
  17   'y, -x+y, -z'
  18   '-x, -y, -z'
  19   'x, x-y, z'
  20   '-x+y, y, z'
  21   '-y, -x, z'
  22   '-x+y, -x, z'
  23   '-y, x-y, z'
  24   'x, y, z'
loop_
_atom_type_symbol
_atom_type_oxidation_number
La0+     0.
loop_
_atom_site_label
_atom_site_type_symbol
_atom_site_symmetry_multiplicity
_atom_site_Wyckoff_symbol
_atom_site_fract_x
_atom_site_fract_y
_atom_site_fract_z
_atom_site_B_iso_or_equiv
_atom_site_occupancy
La1 La0+ 2 a 0 0 0 0. 1
La2 La0+ 2 c 0.3333 0.6667 0.25 0. 1
#End of data_641380-ICSD

