###############################################################################
# Merlino, S.;Labella, L.;Marchetti, F.;Toscani, S. (2004)
# Chemistry of Materials (1,1989- 16, 3895-3903
# Order-disorder transformation in Ru Br3 and Mo Br3: A two-dimensional Ising \
# model
# 
# CIF by ICSD-for-WWW,  Copyright 2003 FIZ-Karlsruhe & A.W.Hewat (hewat@ill.fr)
# NOT TO BE PUBLISHED IN ANY FORM. See http://icsd.ill.fr/icsd/conditions.html
###############################################################################

data_413690-ICSD
_database_code_ICSD                413690
_audit_creation_date               2005-10-01
_chemical_name_systematic
'Molybdenum(III)tribromide'
_chemical_formula_structural       
'Mo Br3'
_chemical_formula_sum              
'Br3 Mo1'
_publ_section_title                
'Br3 Mo1'
loop_
_citation_id
_citation_journal_abbrev
_citation_year
_citation_journal_volume
_citation_page_first
_citation_page_last
_citation_journal_id_ASTM
primary 'Chemistry of Materials (1,1989-' 2004 16 3895 3903 CMATEX
loop_
_publ_author_name
Merlino, S.;Labella, L.;Marchetti, F.;Toscani, S.
_cell_length_a                     6.6046(9)
_cell_length_b                     11.4419(17)
_cell_length_c                     6.0772(7)
_cell_angle_alpha                  90.
_cell_angle_beta                   90.
_cell_angle_gamma                  90.
_cell_volume                       459.2406
_cell_formula_units_Z              4.000
_symmetry_space_group_name_H-M     'P n m m'
_symmetry_Int_Tables_number        59
_refine_ls_R_factor_all            0.083
loop_
_symmetry_equiv_pos_site_id
_symmetry_equiv_pos_as_xyz
   1   '-x, y+1/2, z+1/2'
   2   '-x, y+1/2, -z'
   3   '-x, -y, z+1/2'
   4   '-x, -y, -z'
   5   'x, -y+1/2, -z+1/2'
   6   'x, -y+1/2, z'
   7   'x, y, -z+1/2'
   8   'x, y, z'
loop_
_atom_type_symbol
_atom_type_oxidation_number
Mo3+     3.
Br1-     -1.
loop_
_atom_site_label
_atom_site_type_symbol
_atom_site_symmetry_multiplicity
_atom_site_Wyckoff_symbol
_atom_site_fract_x
_atom_site_fract_y
_atom_site_fract_z
_atom_site_B_iso_or_equiv
_atom_site_occupancy
Mo1 Mo3+ 4 e 0.2539(3) 0.2500 0.0135(3) 0.0219(4) 1
Br1 Br1- 4 f 0.4082(3) 0.40454(15) -0.2500 0.0270(5) 1
Br2 Br1- 4 f 0.0931(3) 0.41040(16) 0.2500 0.0275(5) 1
Br3 Br1- 2 a 0.5727(4) 0.2500 0.2500 0.0280(7) 1
Br4 Br1- 2 b -0.0573(4) 0.2500 -0.2500 0.0256(7) 1
#End of data_413690-ICSD

###############################################################################
# Zheng, Y.-Q.;Grin', Yu.;von Schnering, H.G. (1998)
# Zeitschrift fuer Krist. - New Crystal Structures 213, 469-470
# Crystal structure of molybdenum(II) bromide, Br12 Mo6
# 
# CIF by ICSD-for-WWW,  Copyright 2003 FIZ-Karlsruhe & A.W.Hewat (hewat@ill.fr)
# NOT TO BE PUBLISHED IN ANY FORM. See http://icsd.ill.fr/icsd/conditions.html
###############################################################################

data_409228-ICSD
_database_code_ICSD                409228
_audit_creation_date               1999-06-02
_chemical_name_systematic
'Hexamolybdenum(II) bromide'
_chemical_formula_structural       
'Mo6 Br12'
_chemical_formula_sum              
'Br12 Mo6'
_publ_section_title                
'Br12 Mo6'
loop_
_citation_id
_citation_journal_abbrev
_citation_year
_citation_journal_volume
_citation_page_first
_citation_page_last
_citation_journal_id_ASTM
primary 'Zeitschrift fuer Krist. - New Crystal St' 1998 213 469 470 ZKNSFT
loop_
_publ_author_name
Zheng, Y.-Q.;Grin', Yu.;von Schnering, H.G.
_cell_length_a                     11.771(1)
_cell_length_b                     11.787(1)
_cell_length_c                     14.767(1)
_cell_angle_alpha                  90.
_cell_angle_beta                   90.
_cell_angle_gamma                  90.
_cell_volume                       2048.8404
_cell_formula_units_Z              4.000
_symmetry_space_group_name_H-M     'B b c m'
_symmetry_Int_Tables_number        64
_refine_ls_R_factor_all            0.1018
loop_
_symmetry_equiv_pos_site_id
_symmetry_equiv_pos_as_xyz
   1   '-x+1/2, y+1/2, -z'
   2   'x+1/2, -y+1/2, -z'
   3   'x, y, -z'
   4   '-x, -y, -z'
   5   'x+1/2, -y+1/2, z'
   6   '-x+1/2, y+1/2, z'
   7   '-x, -y, z'
   8   'x, y, z'
   9   '-x, y+1/2, -z+1/2'
  10   'x, -y+1/2, -z+1/2'
  11   'x+1/2, y, -z+1/2'
  12   '-x+1/2, -y, -z+1/2'
  13   'x, -y+1/2, z+1/2'
  14   '-x, y+1/2, z+1/2'
  15   '-x+1/2, -y, z+1/2'
  16   'x+1/2, y, z+1/2'
loop_
_atom_type_symbol
_atom_type_oxidation_number
Mo2+     2.
Br1-     -1.
loop_
_atom_site_label
_atom_site_type_symbol
_atom_site_symmetry_multiplicity
_atom_site_Wyckoff_symbol
_atom_site_fract_x
_atom_site_fract_y
_atom_site_fract_z
_atom_site_B_iso_or_equiv
_atom_site_occupancy
Mo1 Mo2+ 8 d 0 0 0.12609(8) 0. 1.
Mo2 Mo2+ 8 f 0.14345(10) 0.06566(10) 0 0. 1.
Mo3 Mo2+ 8 f 0.93397(10) 0.14351(10) 0 0. 1.
Br1 Br1- 16 g 0.07686(8) 0.20684(8) 0.12383(7) 0. 1.
Br2 Br1- 16 g 0.20724(8) 0.92313(8) 0.12395(7) 0. 1.
Br3 Br1- 8 d 0 0 0.29885(10) 0. 1.
Br4 Br1- 8 f 0.35400(13) 0.14623(13) 0 0. 1.
loop_
_atom_site_aniso_label
_atom_site_aniso_type_symbol
_atom_site_aniso_U_11
_atom_site_aniso_U_22
_atom_site_aniso_U_33
_atom_site_aniso_U_12
_atom_site_aniso_U_13
_atom_site_aniso_U_23
Mo1 Mo2+ 0.0117(6) 0.0136(5) 0.0156(6) -.0008(4) 0 0
Mo2 Mo2+ 0.0074(5) 0.0133(6) 0.0198(6) -.0006(5) 0 0
Mo3 Mo2+ 0.0092(5) 0.0111(5) 0.0189(6) 0.0004(5) 0 0
Br1 Br1- 0.0168(5) 0.0174(4) 0.0241(5) -.0025(4) -.0015(5) -.0054(5)
Br2 Br1- 0.0133(4) 0.0207(5) 0.0266(6) 0.0010(4) -.0059(5) 0.0019(5)
Br3 Br1- 0.0350(9) 0.0354(9) 0.0179(8) -.0061(8) 0 0
Br4 Br1- 0.0127(7) 0.0166(7) 0.0441(10) -.0040(7) 0 0
#End of data_409228-ICSD

###############################################################################
# Babel, D. (1972)
# Journal of Solid State Chemistry 4, 410-416
# Die Verfeinerung der Mo Br3-Struktur
# 
# CIF by ICSD-for-WWW,  Copyright 2003 FIZ-Karlsruhe & A.W.Hewat (hewat@ill.fr)
# NOT TO BE PUBLISHED IN ANY FORM. See http://icsd.ill.fr/icsd/conditions.html
###############################################################################

data_9422-ICSD
_database_code_ICSD                9422
_audit_creation_date               1980-01-01
_chemical_name_systematic
'Molybdenum(III) bromide'
_chemical_formula_structural       
'Mo Br3'
_chemical_formula_sum              
'Br3 Mo1'
_publ_section_title                
'Br3 Mo1'
loop_
_citation_id
_citation_journal_abbrev
_citation_year
_citation_journal_volume
_citation_page_first
_citation_page_last
_citation_journal_id_ASTM
primary 'Journal of Solid State Chemistry' 1972 4 410 416 JSSCBI
loop_
_publ_author_name
Babel, D.
_cell_length_a                     6.595
_cell_length_b                     11.423
_cell_length_c                     6.06
_cell_angle_alpha                  90.
_cell_angle_beta                   90.
_cell_angle_gamma                  90.
_cell_volume                       456.5307
_cell_formula_units_Z              4.000
_symmetry_space_group_name_H-M     'P n m m'
_symmetry_Int_Tables_number        59
_refine_ls_R_factor_all            0.0857
loop_
_symmetry_equiv_pos_site_id
_symmetry_equiv_pos_as_xyz
   1   '-x, y+1/2, z+1/2'
   2   '-x, y+1/2, -z'
   3   '-x, -y, z+1/2'
   4   '-x, -y, -z'
   5   'x, -y+1/2, -z+1/2'
   6   'x, -y+1/2, z'
   7   'x, y, -z+1/2'
   8   'x, y, z'
loop_
_atom_type_symbol
_atom_type_oxidation_number
Mo3+     3.
Br1-     -1.
loop_
_atom_site_label
_atom_site_type_symbol
_atom_site_symmetry_multiplicity
_atom_site_Wyckoff_symbol
_atom_site_fract_x
_atom_site_fract_y
_atom_site_fract_z
_atom_site_B_iso_or_equiv
_atom_site_occupancy
Mo1 Mo3+ 4 e 0.2524(2) 0.25 0.0092(5) 1.19 1.
Br1 Br1- 2 a 0.5690(15) 0.25 0.25 2. 1.
Br2 Br1- 2 b 0.9446(15) 0.25 0.75 1.69 1.
Br3 Br1- 4 f 0.5917(13) 0.5984(1) 0.25 1.55 1.
Br4 Br1- 4 f 0.0920(13) 0.4054(1) 0.25 1.69 1.
#End of data_9422-ICSD

