###############################################################################
# Drews, T.;Supel, J.;Hagenbach, A.;Seppelt, K. (2006)
# Inorganic Chemistry 45, 3782-3788
# Solid state molecular structures of transition metal hexafluorides
# 
# CIF by ICSD-for-WWW,  Copyright 2003 FIZ-Karlsruhe & A.W.Hewat (hewat@ill.fr)
# NOT TO BE PUBLISHED IN ANY FORM. See http://icsd.ill.fr/icsd/conditions.html
###############################################################################

data_171653-ICSD
_database_code_ICSD                171653
_audit_creation_date               2006-10-01
_chemical_name_systematic
'Molybdenum hexafluoride'
_chemical_formula_structural       
'Mo F6'
_chemical_formula_sum              
'F6 Mo1'
_publ_section_title                
'F6 Mo1'
loop_
_citation_id
_citation_journal_abbrev
_citation_year
_citation_journal_volume
_citation_page_first
_citation_page_last
_citation_journal_id_ASTM
primary 'Inorganic Chemistry' 2006 45 3782 3788 INOCAJ
loop_
_publ_author_name
Drews, T.;Supel, J.;Hagenbach, A.;Seppelt, K.
_cell_length_a                     9.394(2)
_cell_length_b                     8.543(2)
_cell_length_c                     4.9588(8)
_cell_angle_alpha                  90.
_cell_angle_beta                   90.
_cell_angle_gamma                  90.
_cell_volume                       397.9606
_cell_formula_units_Z              4.000
_symmetry_space_group_name_H-M     'P n m a'
_symmetry_Int_Tables_number        62
_refine_ls_R_factor_all            0.0208
loop_
_symmetry_equiv_pos_site_id
_symmetry_equiv_pos_as_xyz
   1   'x+1/2, y, -z+1/2'
   2   'x, -y+1/2, z'
   3   '-x+1/2, y+1/2, z+1/2'
   4   '-x, -y, -z'
   5   '-x+1/2, -y, z+1/2'
   6   '-x, y+1/2, -z'
   7   'x+1/2, -y+1/2, -z+1/2'
   8   'x, y, z'
loop_
_atom_type_symbol
_atom_type_oxidation_number
Mo6+     6.
F1-     -1.
loop_
_atom_site_label
_atom_site_type_symbol
_atom_site_symmetry_multiplicity
_atom_site_Wyckoff_symbol
_atom_site_fract_x
_atom_site_fract_y
_atom_site_fract_z
_atom_site_B_iso_or_equiv
_atom_site_occupancy
Mo1 Mo6+ 4 c 0.872573(9) 0.7500 0.088640(19) 0.00977(3) 1
F1 F1- 4 c 0.75767(9) 0.7500 0.38418(16) 0.01652(14) 1
F2 F1- 8 d 0.76257(6) 0.59979(7) -0.06473(12) 0.01823(10) 1
F3 F1- 4 c 0.98810(9) 0.7500 -0.20497(17) 0.01722(14) 1
F4 F1- 8 d 0.98249(6) 0.59987(7) 0.24367(12) 0.01683(10) 1
loop_
_atom_site_aniso_label
_atom_site_aniso_type_symbol
_atom_site_aniso_U_11
_atom_site_aniso_U_22
_atom_site_aniso_U_33
_atom_site_aniso_U_12
_atom_site_aniso_U_13
_atom_site_aniso_U_23
Mo1 Mo6+ 0.01026(4) 0.00931(4) 0.00974(4) 0.000 -0.00010(3) 0.000
F1 F1- 0.0156(3) 0.0203(3) 0.0136(3) 0.000 0.0038(2) 0.000
F2 F1- 0.0194(2) 0.0162(2) 0.0191(2) -0.00490(18) -0.00278(19) -0.00327(19)
F3 F1- 0.0177(3) 0.0208(3) 0.0131(3) 0.000 0.0039(3) 0.000
F4 F1- 0.0178(2) 0.0146(2) 0.0180(2) 0.00406(18) -0.00184(18) 0.00285(19)
#End of data_171653-ICSD

###############################################################################
# Averdunk, F.;Hoppe, R. (1990)
# Journal of the Less-Common Metals 161, 135-140
# Zur Kristallstruktur von Mo F3
# 
# CIF by ICSD-for-WWW,  Copyright 2003 FIZ-Karlsruhe & A.W.Hewat (hewat@ill.fr)
# NOT TO BE PUBLISHED IN ANY FORM. See http://icsd.ill.fr/icsd/conditions.html
###############################################################################

data_68527-ICSD
_database_code_ICSD                68527
_audit_creation_date               1991-07-10
_chemical_name_systematic
'Molybdenum(III) fluoride - LT'
_chemical_formula_structural       
'Mo F3'
_chemical_formula_sum              
'F3 Mo1'
_publ_section_title                
'F3 Mo1'
loop_
_citation_id
_citation_journal_abbrev
_citation_year
_citation_journal_volume
_citation_page_first
_citation_page_last
_citation_journal_id_ASTM
primary 'Journal of the Less-Common Metals' 1990 161 135 140 JCOMAH
loop_
_publ_author_name
Averdunk, F.;Hoppe, R.
_cell_length_a                     5.2118(4)
_cell_length_b                     5.2118(4)
_cell_length_c                     14.407(2)
_cell_angle_alpha                  90.
_cell_angle_beta                   90.
_cell_angle_gamma                  120.
_cell_volume                       338.9106
_cell_formula_units_Z              6.000
_symmetry_space_group_name_H-M     'R -3 c'
_symmetry_Int_Tables_number        167
_refine_ls_R_factor_all            0.0253
loop_
_symmetry_equiv_pos_site_id
_symmetry_equiv_pos_as_xyz
   1   'x-y, -y, -z+1/2'
   2   '-x, -x+y, -z+1/2'
   3   'y, x, -z+1/2'
   4   'x-y, x, -z'
   5   'y, -x+y, -z'
   6   '-x, -y, -z'
   7   '-x+y, y, z+1/2'
   8   'x, x-y, z+1/2'
   9   '-y, -x, z+1/2'
  10   '-x+y, -x, z'
  11   '-y, x-y, z'
  12   'x, y, z'
  13   'x-y+2/3, -y+1/3, -z+5/6'
  14   '-x+2/3, -x+y+1/3, -z+5/6'
  15   'y+2/3, x+1/3, -z+5/6'
  16   'x-y+2/3, x+1/3, -z+1/3'
  17   'y+2/3, -x+y+1/3, -z+1/3'
  18   '-x+2/3, -y+1/3, -z+1/3'
  19   '-x+y+2/3, y+1/3, z+5/6'
  20   'x+2/3, x-y+1/3, z+5/6'
  21   '-y+2/3, -x+1/3, z+5/6'
  22   '-x+y+2/3, -x+1/3, z+1/3'
  23   '-y+2/3, x-y+1/3, z+1/3'
  24   'x+2/3, y+1/3, z+1/3'
  25   'x-y+1/3, -y+2/3, -z+1/6'
  26   '-x+1/3, -x+y+2/3, -z+1/6'
  27   'y+1/3, x+2/3, -z+1/6'
  28   'x-y+1/3, x+2/3, -z+2/3'
  29   'y+1/3, -x+y+2/3, -z+2/3'
  30   '-x+1/3, -y+2/3, -z+2/3'
  31   '-x+y+1/3, y+2/3, z+1/6'
  32   'x+1/3, x-y+2/3, z+1/6'
  33   '-y+1/3, -x+2/3, z+1/6'
  34   '-x+y+1/3, -x+2/3, z+2/3'
  35   '-y+1/3, x-y+2/3, z+2/3'
  36   'x+1/3, y+2/3, z+2/3'
loop_
_atom_type_symbol
_atom_type_oxidation_number
Mo3+     3.
F1-     -1.
loop_
_atom_site_label
_atom_site_type_symbol
_atom_site_symmetry_multiplicity
_atom_site_Wyckoff_symbol
_atom_site_fract_x
_atom_site_fract_y
_atom_site_fract_z
_atom_site_B_iso_or_equiv
_atom_site_occupancy
Mo1 Mo3+ 6 b 0 0 0 0. 1.
F1 F1- 18 e 0.6307(7) 0 0.25 0. 1.
loop_
_atom_site_aniso_label
_atom_site_aniso_type_symbol
_atom_site_aniso_U_11
_atom_site_aniso_U_22
_atom_site_aniso_U_33
_atom_site_aniso_U_12
_atom_site_aniso_U_13
_atom_site_aniso_U_23
Mo1 Mo3+ 0.0100(2) 0.0100(2) 0.0100(3) 0.00050(1) 0 0
F1 F1- 0.0160(12) 0.0138(16) 0.0192(15) 0.0069(8) -.0037(7) -.0073(13)
#End of data_68527-ICSD

###############################################################################
# Gutmann, V.;Jack, K.H. (1951)
# Acta Crystallographica (1,1948-23,1967) 4, 244-246
# The crystal structures of molybdenum trifluoride, Mo F3, and tantalum \
# trifluoride,Ta F3
# 
# CIF by ICSD-for-WWW,  Copyright 2003 FIZ-Karlsruhe & A.W.Hewat (hewat@ill.fr)
# NOT TO BE PUBLISHED IN ANY FORM. See http://icsd.ill.fr/icsd/conditions.html
###############################################################################

data_30612-ICSD
_database_code_ICSD                30612
_audit_creation_date               1980-01-01
_chemical_name_systematic
'Molybdenum(III) fluoride'
_chemical_formula_structural       
'Mo F3'
_chemical_formula_sum              
'F3 Mo1'
_publ_section_title                
'F3 Mo1'
loop_
_citation_id
_citation_journal_abbrev
_citation_year
_citation_journal_volume
_citation_page_first
_citation_page_last
_citation_journal_id_ASTM
primary 'Acta Crystallographica (1,1948-23,1967)' 1951 4 244 246 ACCRA9
loop_
_publ_author_name
Gutmann, V.;Jack, K.H.
_cell_length_a                     3.8985(5)
_cell_length_b                     3.8985(5)
_cell_length_c                     3.8985(5)
_cell_angle_alpha                  90.
_cell_angle_beta                   90.
_cell_angle_gamma                  90.
_cell_volume                       59.2509
_cell_formula_units_Z              1.000
_symmetry_space_group_name_H-M     'P m -3 m'
_symmetry_Int_Tables_number        221
loop_
_symmetry_equiv_pos_site_id
_symmetry_equiv_pos_as_xyz
   1   'z, y, -x'
   2   'y, x, -z'
   3   'x, z, -y'
   4   'z, x, -y'
   5   'y, z, -x'
   6   'x, y, -z'
   7   'z, -y, x'
   8   'y, -x, z'
   9   'x, -z, y'
  10   'z, -x, y'
  11   'y, -z, x'
  12   'x, -y, z'
  13   '-z, y, x'
  14   '-y, x, z'
  15   '-x, z, y'
  16   '-z, x, y'
  17   '-y, z, x'
  18   '-x, y, z'
  19   '-z, -y, -x'
  20   '-y, -x, -z'
  21   '-x, -z, -y'
  22   '-z, -x, -y'
  23   '-y, -z, -x'
  24   '-x, -y, -z'
  25   '-z, -y, x'
  26   '-y, -x, z'
  27   '-x, -z, y'
  28   '-z, -x, y'
  29   '-y, -z, x'
  30   '-x, -y, z'
  31   '-z, y, -x'
  32   '-y, x, -z'
  33   '-x, z, -y'
  34   '-z, x, -y'
  35   '-y, z, -x'
  36   '-x, y, -z'
  37   'z, -y, -x'
  38   'y, -x, -z'
  39   'x, -z, -y'
  40   'z, -x, -y'
  41   'y, -z, -x'
  42   'x, -y, -z'
  43   'z, y, x'
  44   'y, x, z'
  45   'x, z, y'
  46   'z, x, y'
  47   'y, z, x'
  48   'x, y, z'
loop_
_atom_type_symbol
_atom_type_oxidation_number
Mo3+     3.
F1-     -1.
loop_
_atom_site_label
_atom_site_type_symbol
_atom_site_symmetry_multiplicity
_atom_site_Wyckoff_symbol
_atom_site_fract_x
_atom_site_fract_y
_atom_site_fract_z
_atom_site_B_iso_or_equiv
_atom_site_occupancy
Mo1 Mo3+ 1 a 0 0 0 0. 1.
F1 F1- 3 d 0.5 0 0 0. 1.
#End of data_30612-ICSD

###############################################################################
# Levy, J.H.;Taylor, J.C.;Waugh, A.B. (1983)
# Journal of Fluorine Chemistry 23, 29-36
# Neutron powder structural studies of U F6, Mo F6 and W F6 at 77 K
# 
# CIF by ICSD-for-WWW,  Copyright 2003 FIZ-Karlsruhe & A.W.Hewat (hewat@ill.fr)
# NOT TO BE PUBLISHED IN ANY FORM. See http://icsd.ill.fr/icsd/conditions.html
###############################################################################

data_36219-ICSD
_database_code_ICSD                36219
_audit_creation_date               1983-12-31
_chemical_name_systematic
'Molybdenum fluoride - LT'
_chemical_formula_structural       
'Mo F6'
_chemical_formula_sum              
'F6 Mo1'
_publ_section_title                
'F6 Mo1'
loop_
_citation_id
_citation_journal_abbrev
_citation_year
_citation_journal_volume
_citation_page_first
_citation_page_last
_citation_journal_id_ASTM
primary 'Journal of Fluorine Chemistry' 1983 23 29 36 JFLCAR
loop_
_publ_author_name
Levy, J.H.;Taylor, J.C.;Waugh, A.B.
_cell_length_a                     9.387(3)
_cell_length_b                     8.530(3)
_cell_length_c                     4.953(3)
_cell_angle_alpha                  90.
_cell_angle_beta                   90.
_cell_angle_gamma                  90.
_cell_volume                       396.5908
_cell_formula_units_Z              4.000
_symmetry_space_group_name_H-M     'P n m a'
_symmetry_Int_Tables_number        62
loop_
_symmetry_equiv_pos_site_id
_symmetry_equiv_pos_as_xyz
   1   'x+1/2, y, -z+1/2'
   2   'x, -y+1/2, z'
   3   '-x+1/2, y+1/2, z+1/2'
   4   '-x, -y, -z'
   5   '-x+1/2, -y, z+1/2'
   6   '-x, y+1/2, -z'
   7   'x+1/2, -y+1/2, -z+1/2'
   8   'x, y, z'
loop_
_atom_type_symbol
_atom_type_oxidation_number
Mo6+     6.
F1-     -1.
loop_
_atom_site_label
_atom_site_type_symbol
_atom_site_symmetry_multiplicity
_atom_site_Wyckoff_symbol
_atom_site_fract_x
_atom_site_fract_y
_atom_site_fract_z
_atom_site_B_iso_or_equiv
_atom_site_occupancy
Mo1 Mo6+ 4 c 0.1285(10) 0.25 0.0856(28) 0.69 1.
F1 F1- 4 c 0.0115(9) 0.25 -.2086(19) 1.9 1.
F2 F1- 4 c -.2033(28) 0.25 0.2441(18) 1.9 1.
F3 F1- 8 d 0.017(1) 0.0993(10) 0.2423(16) 1.9 1.
F4 F1- 8 d 0.2375(16) 0.1047(21) -.0706(35) 1.9 1.
#End of data_36219-ICSD

###############################################################################
# Edwards, A.J.;Peacock, R.D.;Small, R.W.H. (1962)
# Journal of the Chemical Society 1962, 4486-4491
# The preparation and structure of molybdenum pentafluoride
# 
# CIF by ICSD-for-WWW,  Copyright 2003 FIZ-Karlsruhe & A.W.Hewat (hewat@ill.fr)
# NOT TO BE PUBLISHED IN ANY FORM. See http://icsd.ill.fr/icsd/conditions.html
###############################################################################

data_26644-ICSD
_database_code_ICSD                26644
_audit_creation_date               1986-09-30
_chemical_name_systematic
'Molybdenum(V) fluoride'
_chemical_formula_structural       
'Mo F5'
_chemical_formula_sum              
'F5 Mo1'
_publ_section_title                
'F5 Mo1'
loop_
_citation_id
_citation_journal_abbrev
_citation_year
_citation_journal_volume
_citation_page_first
_citation_page_last
_citation_journal_id_ASTM
primary 'Journal of the Chemical Society' 1962 1962 4486 4491 JCSOA9
loop_
_publ_author_name
Edwards, A.J.;Peacock, R.D.;Small, R.W.H.
_cell_length_a                     9.61(1)
_cell_length_b                     14.22(2)
_cell_length_c                     5.16(1)
_cell_angle_alpha                  90.
_cell_angle_beta                   94.35(33)
_cell_angle_gamma                  90.
_cell_volume                       703.1009
_cell_formula_units_Z              8.000
_symmetry_space_group_name_H-M     'C 1 2/m 1'
_symmetry_Int_Tables_number        12
_refine_ls_R_factor_all            0.1243
loop_
_symmetry_equiv_pos_site_id
_symmetry_equiv_pos_as_xyz
   1   '-x, y, -z'
   2   '-x, -y, -z'
   3   'x, -y, z'
   4   'x, y, z'
   5   '-x+1/2, y+1/2, -z'
   6   '-x+1/2, -y+1/2, -z'
   7   'x+1/2, -y+1/2, z'
   8   'x+1/2, y+1/2, z'
loop_
_atom_type_symbol
_atom_type_oxidation_number
Mo5+     5.
F1-     -1.
loop_
_atom_site_label
_atom_site_type_symbol
_atom_site_symmetry_multiplicity
_atom_site_Wyckoff_symbol
_atom_site_fract_x
_atom_site_fract_y
_atom_site_fract_z
_atom_site_B_iso_or_equiv
_atom_site_occupancy
Mo1 Mo5+ 4 g 0 0.204 0 2.2 1.
Mo2 Mo5+ 4 i 0.262 0 0.745 2.2 1.
F1 F1- 4 i 0.135(5) 0 0.50(1) 4.2 1.
F2 F1- 4 i 0.383(5) 0 0.97(1) 4.2 1.
F3 F1- 8 j 0.360(2) 0.091(1) 0.627(3) 4.2 1.
F4 F1- 8 j 0.128(2) 0.103(1) 0.871(3) 4.2 1.
F5 F1- 8 j -.109(5) 0.188(3) 0.700(9) 4.2 1.
F6 F1- 8 j 0.128(2) 0.290(1) 0.871(3) 4.2 1.
#End of data_26644-ICSD

###############################################################################
# la Valle, D.E.;Steele, R.M.;Wilkinson, M.K.;Yakel, H.L.jr. (1960)
# Journal of the American Chemical Society 82, 2433-2434
# The preparation and crystal structure of molybdenum(III) fluoride
# 
# CIF by ICSD-for-WWW,  Copyright 2003 FIZ-Karlsruhe & A.W.Hewat (hewat@ill.fr)
# NOT TO BE PUBLISHED IN ANY FORM. See http://icsd.ill.fr/icsd/conditions.html
###############################################################################

data_26629-ICSD
_database_code_ICSD                26629
_audit_creation_date               1986-09-30
_chemical_name_systematic
'Molybdenum(III) fluoride - LT'
_chemical_formula_structural       
'Mo F3'
_chemical_formula_sum              
'F3 Mo1'
_publ_section_title                
'F3 Mo1'
loop_
_citation_id
_citation_journal_abbrev
_citation_year
_citation_journal_volume
_citation_page_first
_citation_page_last
_citation_journal_id_ASTM
primary 'Journal of the American Chemical Society' 1960 82 2433 2434 JACSAT
loop_
_publ_author_name
la Valle, D.E.;Steele, R.M.;Wilkinson, M.K.;Yakel, H.L.jr.
_cell_length_a                     5.666(1)
_cell_length_b                     5.666(1)
_cell_length_c                     5.666(1)
_cell_angle_alpha                  54.72(17)
_cell_angle_beta                   54.72(17)
_cell_angle_gamma                  54.72(17)
_cell_volume                       112.8008
_cell_formula_units_Z              2.000
_symmetry_space_group_name_H-M     'R -3 c R'
_symmetry_Int_Tables_number        167
loop_
_symmetry_equiv_pos_site_id
_symmetry_equiv_pos_as_xyz
   1   '-x+1/2, -z+1/2, -y+1/2'
   2   '-z+1/2, -y+1/2, -x+1/2'
   3   '-y+1/2, -x+1/2, -z+1/2'
   4   'x+1/2, z+1/2, y+1/2'
   5   'z+1/2, y+1/2, x+1/2'
   6   'y+1/2, x+1/2, z+1/2'
   7   '-z, -x, -y'
   8   '-y, -z, -x'
   9   '-x, -y, -z'
  10   'z, x, y'
  11   'y, z, x'
  12   'x, y, z'
loop_
_atom_type_symbol
_atom_type_oxidation_number
Mo3+     3.
F1-     -1.
loop_
_atom_site_label
_atom_site_type_symbol
_atom_site_symmetry_multiplicity
_atom_site_Wyckoff_symbol
_atom_site_fract_x
_atom_site_fract_y
_atom_site_fract_z
_atom_site_B_iso_or_equiv
_atom_site_occupancy
Mo1 Mo3+ 2 b 0 0 0 0. 1.
F1 F1- 6 e -.12(1) 0.62(1) 0.25 0. 1.
#End of data_26629-ICSD

###############################################################################
# Levy, J.H.;Sanger, P.L.;Taylor, J.C.;Wilson, P.W. (1975)
# Acta Crystallographica B (24,1968-38,1982) 31, 1065-1067
# The structures of fluorides. XI. Cubic harmonic analysis of the neutron \
# diffraction pattern of the body-centred cubic phase of Mo F6 at 266 K
# 
# CIF by ICSD-for-WWW,  Copyright 2003 FIZ-Karlsruhe & A.W.Hewat (hewat@ill.fr)
# NOT TO BE PUBLISHED IN ANY FORM. See http://icsd.ill.fr/icsd/conditions.html
###############################################################################

data_1879-ICSD
_database_code_ICSD                1879
_audit_creation_date               1980-01-01
_chemical_name_systematic
'Molybdenum fluoride - HT'
_chemical_formula_structural       
'Mo F6'
_chemical_formula_sum              
'F6 Mo1'
_publ_section_title                
'F6 Mo1'
loop_
_citation_id
_citation_journal_abbrev
_citation_year
_citation_journal_volume
_citation_page_first
_citation_page_last
_citation_journal_id_ASTM
primary 'Acta Crystallographica B (24,1968-38,198' 1975 31 1065 1067 ACBCAR
loop_
_publ_author_name
Levy, J.H.;Sanger, P.L.;Taylor, J.C.;Wilson, P.W.
_cell_length_a                     6.221(5)
_cell_length_b                     6.221(5)
_cell_length_c                     6.221(5)
_cell_angle_alpha                  90.
_cell_angle_beta                   90.
_cell_angle_gamma                  90.
_cell_volume                       240.7601
_cell_formula_units_Z              2.000
_symmetry_space_group_name_H-M     'I m -3 m'
_symmetry_Int_Tables_number        229
_refine_ls_R_factor_all            0.1036
loop_
_symmetry_equiv_pos_site_id
_symmetry_equiv_pos_as_xyz
   1   'z, y, -x'
   2   'y, x, -z'
   3   'x, z, -y'
   4   'z, x, -y'
   5   'y, z, -x'
   6   'x, y, -z'
   7   'z, -y, x'
   8   'y, -x, z'
   9   'x, -z, y'
  10   'z, -x, y'
  11   'y, -z, x'
  12   'x, -y, z'
  13   '-z, y, x'
  14   '-y, x, z'
  15   '-x, z, y'
  16   '-z, x, y'
  17   '-y, z, x'
  18   '-x, y, z'
  19   '-z, -y, -x'
  20   '-y, -x, -z'
  21   '-x, -z, -y'
  22   '-z, -x, -y'
  23   '-y, -z, -x'
  24   '-x, -y, -z'
  25   '-z, -y, x'
  26   '-y, -x, z'
  27   '-x, -z, y'
  28   '-z, -x, y'
  29   '-y, -z, x'
  30   '-x, -y, z'
  31   '-z, y, -x'
  32   '-y, x, -z'
  33   '-x, z, -y'
  34   '-z, x, -y'
  35   '-y, z, -x'
  36   '-x, y, -z'
  37   'z, -y, -x'
  38   'y, -x, -z'
  39   'x, -z, -y'
  40   'z, -x, -y'
  41   'y, -z, -x'
  42   'x, -y, -z'
  43   'z, y, x'
  44   'y, x, z'
  45   'x, z, y'
  46   'z, x, y'
  47   'y, z, x'
  48   'x, y, z'
  49   'z+1/2, y+1/2, -x+1/2'
  50   'y+1/2, x+1/2, -z+1/2'
  51   'x+1/2, z+1/2, -y+1/2'
  52   'z+1/2, x+1/2, -y+1/2'
  53   'y+1/2, z+1/2, -x+1/2'
  54   'x+1/2, y+1/2, -z+1/2'
  55   'z+1/2, -y+1/2, x+1/2'
  56   'y+1/2, -x+1/2, z+1/2'
  57   'x+1/2, -z+1/2, y+1/2'
  58   'z+1/2, -x+1/2, y+1/2'
  59   'y+1/2, -z+1/2, x+1/2'
  60   'x+1/2, -y+1/2, z+1/2'
  61   '-z+1/2, y+1/2, x+1/2'
  62   '-y+1/2, x+1/2, z+1/2'
  63   '-x+1/2, z+1/2, y+1/2'
  64   '-z+1/2, x+1/2, y+1/2'
  65   '-y+1/2, z+1/2, x+1/2'
  66   '-x+1/2, y+1/2, z+1/2'
  67   '-z+1/2, -y+1/2, -x+1/2'
  68   '-y+1/2, -x+1/2, -z+1/2'
  69   '-x+1/2, -z+1/2, -y+1/2'
  70   '-z+1/2, -x+1/2, -y+1/2'
  71   '-y+1/2, -z+1/2, -x+1/2'
  72   '-x+1/2, -y+1/2, -z+1/2'
  73   '-z+1/2, -y+1/2, x+1/2'
  74   '-y+1/2, -x+1/2, z+1/2'
  75   '-x+1/2, -z+1/2, y+1/2'
  76   '-z+1/2, -x+1/2, y+1/2'
  77   '-y+1/2, -z+1/2, x+1/2'
  78   '-x+1/2, -y+1/2, z+1/2'
  79   '-z+1/2, y+1/2, -x+1/2'
  80   '-y+1/2, x+1/2, -z+1/2'
  81   '-x+1/2, z+1/2, -y+1/2'
  82   '-z+1/2, x+1/2, -y+1/2'
  83   '-y+1/2, z+1/2, -x+1/2'
  84   '-x+1/2, y+1/2, -z+1/2'
  85   'z+1/2, -y+1/2, -x+1/2'
  86   'y+1/2, -x+1/2, -z+1/2'
  87   'x+1/2, -z+1/2, -y+1/2'
  88   'z+1/2, -x+1/2, -y+1/2'
  89   'y+1/2, -z+1/2, -x+1/2'
  90   'x+1/2, -y+1/2, -z+1/2'
  91   'z+1/2, y+1/2, x+1/2'
  92   'y+1/2, x+1/2, z+1/2'
  93   'x+1/2, z+1/2, y+1/2'
  94   'z+1/2, x+1/2, y+1/2'
  95   'y+1/2, z+1/2, x+1/2'
  96   'x+1/2, y+1/2, z+1/2'
loop_
_atom_type_symbol
_atom_type_oxidation_number
Mo6+     6.
F1-     -1.
loop_
_atom_site_label
_atom_site_type_symbol
_atom_site_symmetry_multiplicity
_atom_site_Wyckoff_symbol
_atom_site_fract_x
_atom_site_fract_y
_atom_site_fract_z
_atom_site_B_iso_or_equiv
_atom_site_occupancy
Mo1 Mo6+ 2 a 0 0 0 9.1(5) 1.
F1 F1- 12 e 0.29 0 0 0. 1.
#End of data_1879-ICSD

###############################################################################
# Levy, J.H.;Taylor, J.C.;Wilson, P.W. (1975)
# Acta Crystallographica B (24,1968-38,1982) 31, 398-401
# Structures of fluorides. IX. The orthorhombic form of molybdenum hexafluoride
# 
# CIF by ICSD-for-WWW,  Copyright 2003 FIZ-Karlsruhe & A.W.Hewat (hewat@ill.fr)
# NOT TO BE PUBLISHED IN ANY FORM. See http://icsd.ill.fr/icsd/conditions.html
###############################################################################

data_153-ICSD
_database_code_ICSD                153
_audit_creation_date               1980-01-01
_chemical_name_systematic
'Molybdenum fluoride - LT'
_chemical_formula_structural       
'Mo F6'
_chemical_formula_sum              
'F6 Mo1'
_publ_section_title                
'F6 Mo1'
loop_
_citation_id
_citation_journal_abbrev
_citation_year
_citation_journal_volume
_citation_page_first
_citation_page_last
_citation_journal_id_ASTM
primary 'Acta Crystallographica B (24,1968-38,198' 1975 31 398 401 ACBCAR
loop_
_publ_author_name
Levy, J.H.;Taylor, J.C.;Wilson, P.W.
_cell_length_a                     9.559(9)
_cell_length_b                     8.668(8)
_cell_length_c                     5.015(5)
_cell_angle_alpha                  90.
_cell_angle_beta                   90.
_cell_angle_gamma                  90.
_cell_volume                       415.5302
_cell_formula_units_Z              4.000
_symmetry_space_group_name_H-M     'P n m a'
_symmetry_Int_Tables_number        62
_refine_ls_R_factor_all            0.1108
loop_
_symmetry_equiv_pos_site_id
_symmetry_equiv_pos_as_xyz
   1   'x+1/2, y, -z+1/2'
   2   'x, -y+1/2, z'
   3   '-x+1/2, y+1/2, z+1/2'
   4   '-x, -y, -z'
   5   '-x+1/2, -y, z+1/2'
   6   '-x, y+1/2, -z'
   7   'x+1/2, -y+1/2, -z+1/2'
   8   'x, y, z'
loop_
_atom_type_symbol
_atom_type_oxidation_number
Mo6+     6.
F1-     -1.
loop_
_atom_site_label
_atom_site_type_symbol
_atom_site_symmetry_multiplicity
_atom_site_Wyckoff_symbol
_atom_site_fract_x
_atom_site_fract_y
_atom_site_fract_z
_atom_site_B_iso_or_equiv
_atom_site_occupancy
Mo1 Mo6+ 4 c 0.1224(12) 0.25 0.1043(35) 2.5 1.
F1 F1- 4 c 0.0155(14) 0.25 -.1978(30) 2.5 1.
F2 F1- 4 c 0.2559(17) 0.25 0.3744(71) 2.5 1.
F3 F1- 8 d 0.0221(11) 0.0993(11) 0.2446(20) 2.5 1.
F4 F1- 8 d 0.232(1) 0.1120(21) -.0711(42) 2.5 1.
#End of data_153-ICSD

