###############################################################################
# Marx, R.;Seppelt, K.;Ibberson, R.M. (1996)
# Journal of Chemical Physics 104, 7658-7664
# Time-of-flight neutron powder diffraction study on the third row transition \
# metal hexafluorides W F6, Os F6, and Pt F6
# 
# CIF by ICSD-for-WWW,  Copyright 2003 FIZ-Karlsruhe & A.W.Hewat (hewat@ill.fr)
# NOT TO BE PUBLISHED IN ANY FORM. See http://icsd.ill.fr/icsd/conditions.html
###############################################################################

data_81854-ICSD
_database_code_ICSD                81854
_audit_creation_date               1999-11-30
_chemical_name_systematic
'Tungsten fluoride - LT'
_chemical_formula_structural       
'W F6'
_chemical_formula_sum              
'F6 W1'
_publ_section_title                
'F6 W1'
loop_
_citation_id
_citation_journal_abbrev
_citation_year
_citation_journal_volume
_citation_page_first
_citation_page_last
_citation_journal_id_ASTM
primary 'Journal of Chemical Physics' 1996 104 7658 7664 JCPSA6
loop_
_publ_author_name
Marx, R.;Seppelt, K.;Ibberson, R.M.
_cell_length_a                     8.53968(5)
_cell_length_b                     9.37738(6)
_cell_length_c                     4.95668(3)
_cell_angle_alpha                  90.
_cell_angle_beta                   90.
_cell_angle_gamma                  90.
_cell_volume                       396.931
_cell_formula_units_Z              4.000
_symmetry_space_group_name_H-M     'P m n b'
_symmetry_Int_Tables_number        62
_refine_ls_R_factor_all            0.0523
loop_
_symmetry_equiv_pos_site_id
_symmetry_equiv_pos_as_xyz
   1   'x, y+1/2, -z+1/2'
   2   '-x+1/2, y, z'
   3   'x+1/2, -y+1/2, z+1/2'
   4   '-x, -y, -z'
   5   '-x, -y+1/2, z+1/2'
   6   'x+1/2, -y, -z'
   7   '-x+1/2, y+1/2, -z+1/2'
   8   'x, y, z'
loop_
_atom_type_symbol
_atom_type_oxidation_number
W6+     6.
F1-     -1.
loop_
_atom_site_label
_atom_site_type_symbol
_atom_site_symmetry_multiplicity
_atom_site_Wyckoff_symbol
_atom_site_fract_x
_atom_site_fract_y
_atom_site_fract_z
_atom_site_B_iso_or_equiv
_atom_site_occupancy
W1 W6+ 4 c 0.25 0.1283(2) 0.0852(4) 0.0005(3) 1.
F1 F1- 4 c 0.25 0.0126(2) 0.7898(3) 0.0041(3) 1.
F2 F1- 4 c 0.25 0.2429(2) 0.3836(3) 0.0047(3) 1.
F3 F1- 8 d 0.0990(1) 0.0166(1) 0.2409(2) 0.0046(3) 1.
F4 F1- 8 d 0.0990(1) 0.2386(1) -.0676(2) 0.0043(3) 1.
#End of data_81854-ICSD

###############################################################################
# Levy, J.H.;Taylor, J.C.;Waugh, A.B. (1983)
# Journal of Fluorine Chemistry 23, 29-36
# Neutron powder structural studies of U F6, Mo F6 and WF6 at 77 K
# 
# CIF by ICSD-for-WWW,  Copyright 2003 FIZ-Karlsruhe & A.W.Hewat (hewat@ill.fr)
# NOT TO BE PUBLISHED IN ANY FORM. See http://icsd.ill.fr/icsd/conditions.html
###############################################################################

data_36220-ICSD
_database_code_ICSD                36220
_audit_creation_date               1983-12-31
_chemical_name_systematic
'Tungsten fluoride - LT'
_chemical_formula_structural       
'W F6'
_chemical_formula_sum              
'F6 W1'
_publ_section_title                
'F6 W1'
loop_
_citation_id
_citation_journal_abbrev
_citation_year
_citation_journal_volume
_citation_page_first
_citation_page_last
_citation_journal_id_ASTM
primary 'Journal of Fluorine Chemistry' 1983 23 29 36 JFLCAR
loop_
_publ_author_name
Levy, J.H.;Taylor, J.C.;Waugh, A.B.
_cell_length_a                     9.422(2)
_cell_length_b                     8.569(2)
_cell_length_c                     4.980(2)
_cell_angle_alpha                  90.
_cell_angle_beta                   90.
_cell_angle_gamma                  90.
_cell_volume                       402.0707
_cell_formula_units_Z              4.000
_symmetry_space_group_name_H-M     'P n m a'
_symmetry_Int_Tables_number        62
_refine_ls_R_factor_all            0.0587
loop_
_symmetry_equiv_pos_site_id
_symmetry_equiv_pos_as_xyz
   1   'x+1/2, y, -z+1/2'
   2   'x, -y+1/2, z'
   3   '-x+1/2, y+1/2, z+1/2'
   4   '-x, -y, -z'
   5   '-x+1/2, -y, z+1/2'
   6   '-x, y+1/2, -z'
   7   'x+1/2, -y+1/2, -z+1/2'
   8   'x, y, z'
loop_
_atom_type_symbol
_atom_type_oxidation_number
W6+     6.
F1-     -1.
loop_
_atom_site_label
_atom_site_type_symbol
_atom_site_symmetry_multiplicity
_atom_site_Wyckoff_symbol
_atom_site_fract_x
_atom_site_fract_y
_atom_site_fract_z
_atom_site_B_iso_or_equiv
_atom_site_occupancy
W1 W6+ 4 c 0.1278(10) 0.25 0.0856(28) 1.38 1.
F1 F1- 4 c 0.0115(9) 0.25 -.2086(19) 1.76 1.
F2 F1- 4 c 0.2432(11) 0.25 0.3695(26) 1.76 1.
F3 F1- 8 d 0.0177(6) 0.0979(7) 0.2381(12) 1.76 1.
F4 F1- 8 d 0.2387(6) 0.0932(14) -.0624(23) 1.76 1.
#End of data_36220-ICSD

###############################################################################
# Levy, J.H.;Taylor, J.C.;Wilson, P.W. (1975)
# Journal of Solid State Chemistry 15, 360-365
# The structures of fluorides XIII: The orthorhombic form of tungsten \
# hexafluoride at 193 K by neutron diffraction
# 
# CIF by ICSD-for-WWW,  Copyright 2003 FIZ-Karlsruhe & A.W.Hewat (hewat@ill.fr)
# NOT TO BE PUBLISHED IN ANY FORM. See http://icsd.ill.fr/icsd/conditions.html
###############################################################################

data_4027-ICSD
_database_code_ICSD                4027
_audit_creation_date               1980-01-01
_chemical_name_systematic
'Tungsten fluoride - LT'
_chemical_formula_structural       
'W F6'
_chemical_formula_sum              
'F6 W1'
_publ_section_title                
'F6 W1'
loop_
_citation_id
_citation_journal_abbrev
_citation_year
_citation_journal_volume
_citation_page_first
_citation_page_last
_citation_journal_id_ASTM
primary 'Journal of Solid State Chemistry' 1975 15 360 365 JSSCBI
loop_
_publ_author_name
Levy, J.H.;Taylor, J.C.;Wilson, P.W.
_cell_length_a                     9.603(3)
_cell_length_b                     8.713(4)
_cell_length_c                     5.044(3)
_cell_angle_alpha                  90.
_cell_angle_beta                   90.
_cell_angle_gamma                  90.
_cell_volume                       422.0408
_cell_formula_units_Z              4.000
_symmetry_space_group_name_H-M     'P n m a'
_symmetry_Int_Tables_number        62
_refine_ls_R_factor_all            0.0758
loop_
_symmetry_equiv_pos_site_id
_symmetry_equiv_pos_as_xyz
   1   'x+1/2, y, -z+1/2'
   2   'x, -y+1/2, z'
   3   '-x+1/2, y+1/2, z+1/2'
   4   '-x, -y, -z'
   5   '-x+1/2, -y, z+1/2'
   6   '-x, y+1/2, -z'
   7   'x+1/2, -y+1/2, -z+1/2'
   8   'x, y, z'
loop_
_atom_type_symbol
_atom_type_oxidation_number
W6+     6.
F1-     -1.
loop_
_atom_site_label
_atom_site_type_symbol
_atom_site_symmetry_multiplicity
_atom_site_Wyckoff_symbol
_atom_site_fract_x
_atom_site_fract_y
_atom_site_fract_z
_atom_site_B_iso_or_equiv
_atom_site_occupancy
W1 W6+ 4 c 0.1247(12) 0.25 0.0999(35) 3.14 1.
F1 F1- 4 c 0.0145(10) 0.25 -.1952(23) 3.14 1.
F2 F1- 4 c 0.2452(12) 0.25 0.3717(45) 3.14 1.
F3 F1- 8 d 0.0212(7) 0.0967(8) 0.2330(15) 3.14 1.
F4 F1- 8 d 0.2357(7) 0.1075(17) -.0624(39) 3.14 1.
#End of data_4027-ICSD

